/*--------------------------------*- C++ -*----------------------------------*\
| =========                 |                                                 |
| \\      /  F ield         | OpenFOAM: The Open Source CFD Toolbox           |
|  \\    /   O peration     | Version:  2506                                  |
|   \\  /    A nd           | Website:  www.openfoam.com                      |
|    \\/     M anipulation  |                                                 |
\*---------------------------------------------------------------------------*/
FoamFile
{
    version     2.0;
    format      ascii;
    arch        "LSB;label=32;scalar=64";
    class       volScalarField;
    location    "5000";
    object      k;
}
// * * * * * * * * * * * * * * * * * * * * * * * * * * * * * * * * * * * * * //

dimensions      [0 2 -2 0 0 0 0];

internalField   nonuniform List<scalar> 
68056
(
0.011680008
0.0092070961
0.0075212709
0.0063120326
0.0054096133
0.0047145496
0.0041652448
0.0037217805
0.0033572895
0.0030531019
0.0027958839
0.0025758852
0.0023858273
0.0022201773
0.0020746611
0.0019459292
0.0018313228
0.0017287065
0.0016363472
0.001552825
0.001476966
0.001407792
0.0013444818
0.0012863413
0.0012327801
0.0011832929
0.0011374452
0.0010948611
0.0010552139
0.0010182187
0.00098362568
0.00095121486
0.00092079212
0.00089218531
0.00086524137
0.00083982371
0.00081581011
0.00079309091
0.00077156739
0.00075115052
0.00073175978
0.00071332215
0.00069577131
0.00067904686
0.00066309369
0.00064786142
0.00063330389
0.00061937876
0.00060604709
0.00059327303
0.0005810235
0.00056926797
0.00055797816
0.00054712788
0.00053669282
0.00052665041
0.00051697963
0.0005076609
0.00049867597
0.00049000777
0.00048164036
0.00047355882
0.00046574916
0.00045819824
0.00045089376
0.00044382412
0.00043697843
0.00043034642
0.00042391843
0.00041768531
0.00041163847
0.00040576975
0.00040007146
0.00039453632
0.00038915743
0.00038392825
0.0003788426
0.00037389459
0.00036907864
0.00036438946
0.00035982202
0.00035537152
0.00035103343
0.00034680341
0.00034267734
0.00033865129
0.00033472154
0.00033088451
0.00032713681
0.0003234752
0.00031989659
0.00031639804
0.00031297674
0.00030962998
0.00030635522
0.00030314999
0.00030001196
0.00029693887
0.0002939286
0.0002909791
0.00028808839
0.00028525461
0.00028247596
0.00027975071
0.00027707722
0.00027445391
0.00027187927
0.00026935183
0.00026687022
0.00026443309
0.00026203916
0.00025968719
0.00025737601
0.00025510449
0.00025287151
0.00025067605
0.00024851708
0.00024639364
0.00024430479
0.00024224964
0.00024022731
0.00023823697
0.00023627781
0.00023434907
0.00023244999
0.00023057984
0.00022873794
0.00022692361
0.0002251362
0.00022337508
0.00022163964
0.00021992929
0.00021824346
0.0002165816
0.00021494317
0.00021332766
0.00021173455
0.00021016336
0.00020861362
0.00020708486
0.00020557663
0.0002040885
0.00020262003
0.00020117082
0.00019974047
0.00019832857
0.00019693476
0.00019555865
0.00019419989
0.00019285812
0.000191533
0.00019022419
0.00018893138
0.00018765425
0.00018639249
0.0001851458
0.0001839139
0.00018269651
0.00018149336
0.00018030419
0.00017912875
0.00017796679
0.0001768181
0.00017568243
0.00017455959
0.00017344935
0.00017235153
0.00017126594
0.00017019239
0.00016913072
0.00016808076
0.00016704235
0.00016601534
0.0001649996
0.00016399498
0.00016300135
0.00016201859
0.00016104657
0.00016008517
0.00015913429
0.0001581938
0.00015726361
0.00015634361
0.00015543368
0.00015453372
0.00015364364
0.00015276332
0.00015189265
0.00015103155
0.00015017989
0.00014933757
0.00014850449
0.00014768053
0.00014686558
0.00014605952
0.00014526225
0.00014447365
0.00014369361
0.000142922
0.00014215871
0.00014140362
0.00014065662
0.00013991759
0.00013918641
0.00013846297
0.00013774715
0.00013703885
0.00013633794
0.00013564433
0.0001349579
0.00013427854
0.00013360615
0.00013294063
0.00013228187
0.00013162977
0.00013098423
0.00013034514
0.00012971241
0.00012908593
0.0001284656
0.00012785132
0.00012724297
0.00012664045
0.00012604364
0.00012545243
0.00012486671
0.00012428635
0.00012371123
0.00012314122
0.00012257618
0.00012201599
0.0001214605
0.00012090958
0.00012036308
0.00011982087
0.00011928278
0.00011874869
0.00011821844
0.00011769189
0.00011716891
0.00011664935
0.00011613308
0.00011561998
0.00011510993
0.00011460281
0.00011409852
0.00011359697
0.00011309807
0.00011260174
0.00011210793
0.00011161657
0.00011112765
0.00011064112
0.00011015698
0.00010967523
0.00010919588
0.00010871895
0.00010824449
0.00010777253
0.00010730315
0.0001068364
0.00010637236
0.00010591112
0.00010545276
0.00010499738
0.00010454508
0.00010409595
0.0001036501
0.00010320762
0.00010276861
0.00010233316
0.00010190135
0.00010147327
0.00010104899
0.00010062857
0.00010021207
9.9799516e-05
9.939095e-05
9.8986388e-05
9.8585836e-05
9.8189287e-05
9.7796722e-05
9.740811e-05
9.7023406e-05
9.6642556e-05
9.6265494e-05
9.5892145e-05
9.5522424e-05
9.515624e-05
9.4793495e-05
9.4434086e-05
9.4077906e-05
9.3724847e-05
9.3374799e-05
9.3027661e-05
9.2683344e-05
9.2341909e-05
9.2004052e-05
9.1675921e-05
9.139247e-05
0.011680008
0.0092070937
0.0075212666
0.006312027
0.0054096069
0.0047145426
0.0041652376
0.0037217733
0.0033572824
0.0030530949
0.0027958771
0.0025758785
0.0023858208
0.002220171
0.002074655
0.0019459232
0.0018313169
0.0017287007
0.0016363416
0.0015528194
0.0014769605
0.0014077865
0.0013444763
0.0012863359
0.0012327747
0.0011832875
0.0011374398
0.0010948557
0.0010552086
0.0010182134
0.00098362038
0.00095120959
0.00092078687
0.00089218009
0.00086523618
0.00083981856
0.00081580502
0.00079308586
0.00077156241
0.00075114561
0.00073175495
0.00071331741
0.00069576667
0.00067904233
0.00066308928
0.00064785714
0.00063329976
0.00061937478
0.00060604327
0.00059326938
0.00058102004
0.0005692647
0.00055797509
0.00054712502
0.0005366902
0.00052664802
0.00051697748
0.00050765901
0.00049867434
0.00049000642
0.0004816393
0.00047355805
0.00046574868
0.00045819808
0.00045089391
0.00044382459
0.00043697923
0.00043034755
0.00042391989
0.00041768712
0.00041164062
0.00040577225
0.00040007431
0.00039453952
0.00038916098
0.00038393216
0.00037884686
0.0003738992
0.0003690836
0.00036439477
0.00035982768
0.00035537753
0.00035103977
0.00034681009
0.00034268435
0.00033865863
0.00033472919
0.00033089248
0.00032714508
0.00032348377
0.00031990546
0.00031640719
0.00031298616
0.00030963967
0.00030636517
0.00030316019
0.00030002239
0.00029694954
0.0002939395
0.0002909902
0.00028809969
0.0002852661
0.00028248763
0.00027976256
0.00027708923
0.00027446607
0.00027189157
0.00026936427
0.00026688277
0.00026444575
0.00026205192
0.00025970005
0.00025738895
0.0002551175
0.00025288459
0.00025068917
0.00024853025
0.00024640685
0.00024431802
0.00024226288
0.00024024056
0.00023825022
0.00023629106
0.0002343623
0.0002324632
0.00023059302
0.00022875109
0.00022693671
0.00022514925
0.00022338808
0.00022165258
0.00021994216
0.00021825627
0.00021659433
0.00021495583
0.00021334023
0.00021174704
0.00021017576
0.00020862593
0.00020709707
0.00020558875
0.00020410052
0.00020263195
0.00020118264
0.00019975218
0.00019834018
0.00019694625
0.00019557003
0.00019421116
0.00019286928
0.00019154404
0.00019023513
0.0001889422
0.00018766495
0.00018640307
0.00018515626
0.00018392424
0.00018270673
0.00018150345
0.00018031416
0.00017913859
0.00017797651
0.00017682769
0.0001756919
0.00017456892
0.00017345856
0.0001723606
0.00017127488
0.0001702012
0.0001691394
0.00016808931
0.00016705077
0.00016602364
0.00016500777
0.00016400303
0.00016300928
0.0001620264
0.00016105427
0.00016009277
0.00015914179
0.00015820121
0.00015727092
0.00015635083
0.00015544083
0.00015454081
0.00015365066
0.00015277029
0.00015189959
0.00015103845
0.00015018677
0.00014934444
0.00014851135
0.00014768739
0.00014687245
0.00014606643
0.00014526919
0.00014448063
0.00014370064
0.00014292909
0.00014216587
0.00014141086
0.00014066394
0.00013992501
0.00013919393
0.0001384706
0.00013775489
0.00013704671
0.00013634594
0.00013565246
0.00013496617
0.00013428696
0.00013361472
0.00013294936
0.00013229076
0.00013163884
0.00013099347
0.00013035457
0.00012972203
0.00012909575
0.00012847562
0.00012786153
0.00012725339
0.00012665109
0.0001260545
0.00012546351
0.00012487801
0.00012429787
0.00012372297
0.00012315318
0.00012258836
0.00012202838
0.0001214731
0.00012092238
0.00012037607
0.00011983402
0.0001192961
0.00011876215
0.00011823203
0.00011770558
0.00011718268
0.00011666318
0.00011614695
0.00011563386
0.00011512378
0.00011461661
0.00011411224
0.00011361057
0.00011311152
0.00011261501
0.00011212098
0.00011162938
0.00011114018
0.00011065335
0.00011016888
0.00010968677
0.00010920703
0.0001087297
0.00010825481
0.00010778242
0.00010731258
0.00010684537
0.00010638086
0.00010591914
0.00010546032
0.00010500447
0.00010455171
0.00010410214
0.00010365585
0.00010321296
0.00010277356
0.00010233775
0.00010190561
0.00010147723
0.00010105268
0.00010063203
0.00010021533
9.980263e-05
9.9393953e-05
9.8989321e-05
9.8588743e-05
9.819221e-05
9.7799704e-05
9.7411192e-05
9.702663e-05
9.6645963e-05
9.6269123e-05
9.5896033e-05
9.5526608e-05
9.5160754e-05
9.479837e-05
9.4439352e-05
9.408359e-05
9.3730974e-05
9.3381394e-05
9.3034743e-05
9.2690933e-05
9.2350019e-05
9.2012706e-05
9.1685117e-05
9.1402121e-05
0.011680008
0.0092070937
0.0075212661
0.0063120256
0.0054096045
0.0047145394
0.0041652337
0.0037217687
0.0033572773
0.0030530894
0.0027958712
0.0025758724
0.0023858145
0.0022201645
0.0020746483
0.0019459164
0.0018313099
0.0017286936
0.0016363344
0.0015528121
0.0014769531
0.001407779
0.0013444688
0.0012863282
0.0012327669
0.0011832797
0.001137432
0.0010948478
0.0010552006
0.0010182054
0.00098361225
0.00095120141
0.00092077865
0.00089217185
0.00086522792
0.00083981029
0.00081579675
0.00079307761
0.00077155419
0.00075113744
0.00073174684
0.00071330938
0.00069575873
0.0006790345
0.00066308158
0.00064784958
0.00063329235
0.00061936755
0.00060603624
0.00059326257
0.00058101347
0.00056925839
0.00055796905
0.00054711928
0.00053668477
0.00052664293
0.00051697275
0.00050765465
0.00049867037
0.00049000286
0.00048163617
0.00047355536
0.00046574646
0.00045819633
0.00045089265
0.00044382385
0.00043697901
0.00043034787
0.00042392076
0.00041768855
0.00041164262
0.00040577484
0.00040007749
0.00039454331
0.00038916538
0.00038393717
0.00037885248
0.00037390545
0.00036909048
0.00036440228
0.00035983581
0.00035538629
0.00035104916
0.0003468201
0.00034269498
0.00033866988
0.00033474106
0.00033090495
0.00032715815
0.00032349744
0.00031991971
0.00031642202
0.00031300156
0.00030965563
0.00030638167
0.00030317723
0.00030003996
0.00029696762
0.00029395807
0.00029100927
0.00028811924
0.00028528611
0.00028250809
0.00027978344
0.00027711054
0.00027448778
0.00027191367
0.00026938674
0.00026690561
0.00026446893
0.00026207543
0.00025972387
0.00025741307
0.00025514189
0.00025290924
0.00025071408
0.00024855539
0.0002464322
0.00024434357
0.00024228862
0.00024026646
0.00023827627
0.00023631724
0.0002343886
0.00023248959
0.00023061951
0.00022877764
0.00022696332
0.0002251759
0.00022341475
0.00022167927
0.00021996885
0.00021828295
0.00021662099
0.00021498245
0.00021336681
0.00021177356
0.00021020222
0.0002086523
0.00020712336
0.00020561494
0.00020412661
0.00020265793
0.00020120851
0.00019977793
0.0001983658
0.00019697174
0.00019559539
0.00019423638
0.00019289435
0.00019156897
0.0001902599
0.00018896681
0.0001876894
0.00018642736
0.00018518039
0.00018394819
0.00018273051
0.00018152705
0.00018033757
0.00017916181
0.00017799953
0.00017685049
0.00017571448
0.00017459127
0.00017348067
0.00017238247
0.00017129648
0.00017022253
0.00016916044
0.00016811005
0.00016707121
0.00016604375
0.00016502754
0.00016402245
0.00016302834
0.00016204508
0.00016107257
0.00016011067
0.00015915928
0.00015821829
0.0001572876
0.00015636709
0.00015545667
0.00015455623
0.00015366568
0.0001527849
0.0001519138
0.00015105227
0.00015020022
0.00014935753
0.0001485241
0.00014769983
0.0001468846
0.0001460783
0.00014528082
0.00014449204
0.00014371186
0.00014294015
0.00014217681
0.0001414217
0.00014067472
0.00013993574
0.00013920466
0.00013848134
0.00013776569
0.00013705758
0.0001363569
0.00013566354
0.00013497739
0.00013429834
0.00013362627
0.0001329611
0.0001323027
0.00013165098
0.00013100582
0.00013036714
0.00012973482
0.00012910876
0.00012848885
0.00012787499
0.00012726708
0.00012666499
0.00012606862
0.00012547785
0.00012489257
0.00012431265
0.00012373796
0.00012316838
0.00012260378
0.00012204402
0.00012148896
0.00012093846
0.00012039238
0.00011985057
0.00011931288
0.00011877918
0.0001182493
0.00011772312
0.00011720048
0.00011668125
0.00011616529
0.00011565247
0.00011514267
0.00011463577
0.00011413166
0.00011363026
0.00011313145
0.00011263518
0.00011214138
0.00011164998
0.00011116096
0.00011067428
0.00011018992
0.0001097079
0.00010922821
0.00010875088
0.00010827596
0.00010780348
0.00010733351
0.00010686611
0.00010640137
0.00010593938
0.00010548021
0.00010502399
0.00010457079
0.00010412074
0.00010367394
0.00010323049
0.0001027905
0.00010235407
0.00010192128
0.00010149224
0.00010106703
0.0001006457
0.00010022834
9.9814985e-05
9.940568e-05
9.9000453e-05
9.8599318e-05
9.8202279e-05
9.7809323e-05
9.7420428e-05
9.7035556e-05
9.6654659e-05
9.6277677e-05
9.5904539e-05
9.5535164e-05
9.5169464e-05
9.480734e-05
9.4448692e-05
9.4093411e-05
9.3741389e-05
9.3392512e-05
9.3046674e-05
9.2703782e-05
9.2363888e-05
9.2027684e-05
9.1701292e-05
9.1419309e-05
0.011680008
0.0092070938
0.0075212661
0.0063120254
0.0054096039
0.0047145383
0.0041652319
0.0037217663
0.0033572744
0.0030530858
0.0027958671
0.0025758678
0.0023858094
0.0022201589
0.0020746423
0.0019459101
0.0018313032
0.0017286866
0.001636327
0.0015528045
0.0014769452
0.0014077709
0.0013444604
0.0012863196
0.0012327581
0.0011832707
0.0011374227
0.0010948384
0.001055191
0.0010181957
0.00098360241
0.00095119146
0.0009207686
0.00089216171
0.00086521772
0.00083980004
0.00081578647
0.00079306733
0.00077154392
0.0007511272
0.00073173665
0.00071329927
0.00069574872
0.00067902462
0.00066307185
0.00064784002
0.000633283
0.00061935843
0.00060602738
0.00059325399
0.0005810052
0.00056925045
0.00055796149
0.00054711211
0.00053667802
0.00052663663
0.00051696692
0.00050764933
0.00049866558
0.00048999863
0.00048163252
0.00047355233
0.00046574406
0.00045819459
0.00045089159
0.00044382349
0.00043697938
0.00043034898
0.00042392264
0.00041769121
0.00041164608
0.00040577911
0.00040008259
0.00039454924
0.00038917216
0.00038394481
0.000378861
0.00037391484
0.00036910074
0.00036441342
0.00035984784
0.00035539921
0.00035106297
0.00034683479
0.00034271055
0.00033868632
0.00033475837
0.00033092312
0.00032717719
0.00032351732
0.00031994043
0.00031644356
0.00031302391
0.00030967878
0.00030640561
0.00030320195
0.00030006543
0.00029699384
0.00029398502
0.00029103692
0.00028814759
0.00028531514
0.00028253777
0.00027981377
0.00027714148
0.00027451933
0.0002719458
0.00026941943
0.00026693884
0.00026450268
0.00026210968
0.0002597586
0.00025744826
0.00025517752
0.00025294529
0.00025075052
0.0002485922
0.00024646936
0.00024438106
0.00024232641
0.00024030454
0.00023831461
0.00023635582
0.00023442739
0.00023252858
0.00023065867
0.00022881695
0.00022700276
0.00022521545
0.00022345439
0.00022171897
0.00022000861
0.00021832273
0.00021666078
0.00021502224
0.00021340657
0.00021181328
0.00021024188
0.00020869189
0.00020716286
0.00020565433
0.00020416588
0.00020269707
0.0002012475
0.00019981676
0.00019840447
0.00019701024
0.00019563369
0.00019427448
0.00019293225
0.00019160665
0.00019029736
0.00018900405
0.0001877264
0.00018646411
0.00018521688
0.00018398443
0.00018276647
0.00018156274
0.00018037297
0.00017919692
0.00017803433
0.00017688498
0.00017574864
0.00017462509
0.00017351414
0.00017241557
0.00017132921
0.00017025486
0.00016919236
0.00016814155
0.00016710226
0.00016607434
0.00016505766
0.00016405208
0.00016305746
0.00016207369
0.00016110063
0.00016013819
0.00015918624
0.00015824468
0.00015731341
0.00015639232
0.00015548131
0.00015458028
0.00015368914
0.00015280777
0.0001519361
0.00015107401
0.0001502214
0.00014937818
0.00014854423
0.00014771946
0.00014690376
0.00014609702
0.00014529913
0.00014450999
0.00014372946
0.00014295745
0.00014219384
0.00014143851
0.00014069134
0.00013995222
0.00013922102
0.00013849764
0.00013778196
0.00013707386
0.00013637322
0.00013567994
0.00013499389
0.00013431498
0.00013364308
0.00013297808
0.00013231989
0.00013166839
0.00013102348
0.00013038504
0.00012975298
0.00012912719
0.00012850755
0.00012789397
0.00012728633
0.00012668452
0.00012608842
0.00012549793
0.00012491292
0.00012433327
0.00012375885
0.00012318954
0.00012262521
0.00012206572
0.00012151094
0.00012096072
0.00012041492
0.00011987341
0.00011933603
0.00011880263
0.00011827309
0.00011774724
0.00011722495
0.00011670608
0.00011619049
0.00011567805
0.00011516865
0.00011466215
0.00011415846
0.00011365747
0.00011315909
0.00011266323
0.00011216984
0.00011167885
0.00011119021
0.00011070391
0.0001102199
0.0001097382
0.0001092588
0.00010878173
0.00010830702
0.00010783471
0.00010736486
0.00010689754
0.00010643281
0.00010597076
0.0001055115
0.0001050551
0.00010460168
0.00010415135
0.0001037042
0.00010326035
0.0001028199
0.00010238296
0.00010194964
0.00010152002
0.0001010942
0.00010067225
0.00010025426
9.9840276e-05
9.9430354e-05
9.9024532e-05
9.8622837e-05
9.8225283e-05
9.7831871e-05
9.7442588e-05
9.7057409e-05
9.6676296e-05
9.62992e-05
9.592606e-05
9.5556805e-05
9.5191352e-05
9.4829614e-05
9.4471493e-05
9.4116886e-05
9.3765688e-05
9.3417788e-05
9.3073078e-05
9.2731465e-05
9.2392996e-05
9.2058348e-05
9.1733619e-05
9.1453057e-05
0.011680008
0.0092070939
0.0075212662
0.0063120253
0.0054096035
0.0047145375
0.0041652307
0.0037217646
0.003357272
0.003053083
0.0027958637
0.0025758638
0.0023858048
0.0022201538
0.0020746367
0.0019459039
0.0018312966
0.0017286795
0.0016363195
0.0015527966
0.0014769369
0.0014077622
0.0013444513
0.0012863102
0.0012327483
0.0011832606
0.0011374124
0.0010948278
0.0010551802
0.0010181846
0.00098359119
0.00095118006
0.00092075705
0.00089215004
0.00086520595
0.0008397882
0.00081577458
0.00079305542
0.00077153201
0.00075111533
0.00073172485
0.00071328757
0.00069573715
0.0006790132
0.00066306063
0.00064782903
0.00063327227
0.00061934799
0.00060601727
0.00059324425
0.00058099586
0.00056924155
0.00055795306
0.0005471042
0.00053667065
0.00052662984
0.00051696076
0.00050764382
0.00049866076
0.00048999453
0.00048162918
0.00047354978
0.00046574233
0.00045819372
0.0004508916
0.00044382441
0.00043698123
0.0004303518
0.00042392644
0.00041769602
0.00041165193
0.000405786
0.00040009055
0.00039455828
0.00038918229
0.00038395605
0.00037887335
0.00037392831
0.00036911534
0.00036442916
0.00035986471
0.00035541721
0.0003510821
0.00034685505
0.00034273194
0.00033870883
0.00033478199
0.00033094784
0.000327203
0.00032354421
0.00031996838
0.00031647257
0.00031305396
0.00030970985
0.00030643768
0.000303235
0.00030009945
0.00029702881
0.00029402091
0.00029107372
0.00028818526
0.00028535367
0.00028257714
0.00027985395
0.00027718246
0.00027456107
0.00027198828
0.00026946263
0.00026698273
0.00026454724
0.00026215488
0.00025980442
0.00025749466
0.00025522449
0.00025299279
0.00025079853
0.0002486407
0.00024651831
0.00024443044
0.0002423762
0.0002403547
0.00023836511
0.00023640664
0.00023447851
0.00023257997
0.00023071029
0.00022886878
0.00022705478
0.00022526763
0.0002235067
0.00022177139
0.00022006111
0.00021837529
0.00021671337
0.00021507484
0.00021345915
0.00021186582
0.00021029436
0.00020874429
0.00020721515
0.0002057065
0.0002042179
0.00020274893
0.00020129918
0.00019986824
0.00019845572
0.00019706126
0.00019568447
0.00019432499
0.00019298248
0.00019165659
0.00019034699
0.00018905336
0.00018777538
0.00018651274
0.00018526516
0.00018403234
0.00018281401
0.00018160988
0.00018041971
0.00017924324
0.00017808023
0.00017693044
0.00017579365
0.00017466965
0.00017355822
0.00017245916
0.00017137229
0.00017029743
0.0001692344
0.00016818303
0.00016714318
0.00016611469
0.00016509742
0.00016409123
0.00016309599
0.00016211158
0.00016113788
0.00016017478
0.00015922216
0.00015827993
0.00015734797
0.0001564262
0.0001555145
0.00015461278
0.00015372095
0.00015283891
0.00015196656
0.00015110381
0.00015025056
0.00014940671
0.00014857216
0.00014774681
0.00014693056
0.0001461233
0.00014532492
0.00014453532
0.00014375438
0.00014298199
0.00014221805
0.00014146243
0.00014071501
0.00013997569
0.00013924435
0.00013852086
0.00013780511
0.00013709699
0.00013639638
0.00013570315
0.00013501721
0.00013433843
0.0001336667
0.00013300191
0.00013234395
0.00013169271
0.00013104808
0.00013040994
0.0001297782
0.00012915273
0.00012853344
0.00012792021
0.00012731292
0.00012671147
0.00012611574
0.00012552561
0.00012494096
0.00012436167
0.00012378762
0.00012321868
0.00012265471
0.00012209558
0.00012154116
0.00012099131
0.00012044589
0.00011990474
0.00011936774
0.00011883474
0.00011830559
0.00011778015
0.00011725827
0.00011673983
0.00011622468
0.0001157127
0.00011520376
0.00011469774
0.00011419453
0.00011369403
0.00011319615
0.0001127008
0.00011220791
0.00011171742
0.00011122929
0.00011074347
0.00011025995
0.0001097787
0.00010929974
0.00010882309
0.00010834876
0.0001078768
0.00010740726
0.0001069402
0.00010647569
0.00010601382
0.00010555468
0.00010509836
0.00010464496
0.0001041946
0.00010374737
0.00010330339
0.00010286276
0.00010242561
0.00010199202
0.00010156212
0.00010113599
0.00010071372
0.0001002954
9.9881094e-05
9.9470866e-05
9.9064765e-05
9.8662831e-05
9.8265088e-05
9.787155e-05
9.7482218e-05
9.7097079e-05
9.6716108e-05
9.6339266e-05
9.5966505e-05
9.5597763e-05
9.523297e-05
9.4872045e-05
9.4514898e-05
9.4161434e-05
9.3811552e-05
9.3465143e-05
9.3122103e-05
9.2782337e-05
9.2445891e-05
9.2113423e-05
9.1790987e-05
9.1512416e-05
0.011680008
0.0092070938
0.007521266
0.0063120249
0.0054096028
0.0047145365
0.0041652292
0.0037217626
0.0033572695
0.0030530799
0.00279586
0.0025758595
0.0023858
0.0022201484
0.0020746307
0.0019458973
0.0018312895
0.0017286718
0.0016363113
0.0015527879
0.0014769277
0.0014077525
0.0013444412
0.0012862997
0.0012327375
0.0011832494
0.0011374008
0.0010948159
0.001055168
0.0010181721
0.00098357846
0.00095116712
0.00092074394
0.00089213678
0.00086519256
0.00083977473
0.00081576105
0.00079304187
0.00077151848
0.00075110186
0.00073171146
0.00071327431
0.00069572406
0.00067900032
0.00066304799
0.00064781669
0.00063326026
0.00061933636
0.00060600606
0.0005932335
0.00058098562
0.00056923187
0.00055794397
0.00054709575
0.00053666289
0.00052662282
0.00051695451
0.00050763839
0.00049865619
0.00048999086
0.00048162645
0.00047354803
0.00046574161
0.00045819405
0.00045089303
0.00044382697
0.00043698495
0.00043035671
0.00042393257
0.0004177034
0.00041166057
0.00040579593
0.00040010179
0.00039457085
0.00038919621
0.00038397132
0.00037888999
0.00037394632
0.00036913474
0.00036444994
0.00035988687
0.00035544076
0.00035110703
0.00034688136
0.00034275962
0.00033873787
0.00033481238
0.00033097957
0.00032723605
0.00032357857
0.00032000403
0.00031650949
0.00031309213
0.00030974925
0.00030647829
0.00030327679
0.00030014241
0.0002970729
0.00029406611
0.00029112
0.00028823261
0.00028540204
0.00028262652
0.0002799043
0.00027723375
0.00027461328
0.00027204138
0.00026951659
0.00026703751
0.00026460282
0.00026221123
0.0002598615
0.00025755245
0.00025528294
0.00025305189
0.00025085824
0.00024870099
0.00024657915
0.0002444918
0.00024243803
0.00024041699
0.00023842782
0.00023646974
0.00023454196
0.00023264374
0.00023077436
0.00022893311
0.00022711934
0.00022533238
0.00022357162
0.00022183645
0.00022012627
0.00021844053
0.00021677866
0.00021514014
0.00021352444
0.00021193107
0.00021035954
0.00020880937
0.00020728011
0.00020577131
0.00020428253
0.00020281336
0.00020136337
0.00019993218
0.0001985194
0.00019712463
0.00019574752
0.00019438771
0.00019304484
0.00019171857
0.00019040858
0.00018911453
0.00018783612
0.00018657304
0.00018532499
0.0001840917
0.00018287286
0.00018166823
0.00018047754
0.00017930053
0.00017813697
0.00017698661
0.00017584924
0.00017472464
0.0001736126
0.00017251292
0.00017142542
0.0001703499
0.00016928621
0.00016823417
0.00016719363
0.00016616444
0.00016514646
0.00016413954
0.00016314357
0.00016215842
0.00016118397
0.00016022011
0.00015926674
0.00015832374
0.00015739101
0.00015646846
0.000155556
0.00015465352
0.00015376094
0.00015287815
0.00015200507
0.00015114161
0.00015028766
0.00014944314
0.00014860794
0.00014778198
0.00014696514
0.00014615732
0.00014535843
0.00014456835
0.00014378698
0.00014301421
0.00014224992
0.000141494
0.00014074635
0.00014000683
0.00013927534
0.00013855176
0.00013783597
0.00013712785
0.0001364273
0.00013573418
0.00013504838
0.00013436979
0.0001336983
0.00013303378
0.00013237613
0.00013172522
0.00013108096
0.00013044322
0.00012981189
0.00012918687
0.00012856803
0.00012795526
0.00012734846
0.00012674749
0.00012615226
0.00012556263
0.00012497848
0.0001243997
0.00012382615
0.00012325771
0.00012269424
0.00012213561
0.00012158169
0.00012103234
0.00012048741
0.00011994676
0.00011941026
0.00011887775
0.0001183491
0.00011782417
0.00011730281
0.00011678488
0.00011627026
0.00011575881
0.00011525041
0.00011474494
0.00011424229
0.00011374235
0.00011324504
0.00011275026
0.00011225795
0.00011176805
0.00011128049
0.00011079525
0.0001103123
0.00010983162
0.00010935322
0.0001088771
0.00010840329
0.00010793183
0.00010746276
0.00010699616
0.00010653208
0.0001060706
0.00010561182
0.00010515583
0.00010470272
0.00010425262
0.00010380562
0.00010336184
0.00010292139
0.00010248439
0.00010205094
0.00010162116
0.00010119516
0.00010077302
0.00010035485
9.994072e-05
9.9530704e-05
9.9124863e-05
9.8723248e-05
9.8325897e-05
9.7932836e-05
9.7544079e-05
9.7159625e-05
9.6779462e-05
9.6403565e-05
9.6031896e-05
9.5664406e-05
9.5301033e-05
9.4941707e-05
9.4586348e-05
9.4234865e-05
9.3887163e-05
9.354314e-05
9.320269e-05
9.2865721e-05
9.2532273e-05
9.2202989e-05
9.1883851e-05
9.1608143e-05
0.011680008
0.0092070938
0.0075212658
0.0063120244
0.0054096019
0.0047145351
0.0041652273
0.0037217601
0.0033572665
0.0030530762
0.0027958557
0.0025758546
0.0023857944
0.0022201422
0.0020746238
0.0019458898
0.0018312814
0.0017286631
0.001636302
0.001552778
0.0014769172
0.0014077415
0.0013444297
0.0012862877
0.001232725
0.0011832365
0.0011373876
0.0010948023
0.001055154
0.0010181579
0.00098356394
0.00095115236
0.00092072896
0.00089212163
0.00086517729
0.00083975936
0.00081574564
0.00079302644
0.00077150309
0.00075108654
0.00073169627
0.00071325928
0.00069570925
0.00067898577
0.00066303376
0.00064780281
0.0006332468
0.00061932337
0.00060599358
0.00059322159
0.00058097434
0.00056922126
0.00055793409
0.00054708665
0.00053665463
0.00052661544
0.00051694807
0.00050763294
0.00049865179
0.00048998755
0.00048162429
0.00047354705
0.00046574186
0.00045819558
0.00045089588
0.00044383117
0.00043699054
0.00043036373
0.00042394106
0.00041771338
0.00041167207
0.00040580898
0.00040011641
0.00039458705
0.00038921401
0.00038399074
0.00037891104
0.00037396901
0.00036915907
0.00036447591
0.0003599145
0.00035547002
0.00035113793
0.00034691389
0.00034279377
0.00033877363
0.00033484973
0.0003310185
0.00032727653
0.00032362058
0.00032004756
0.00031655452
0.00031313862
0.00030979718
0.00030652764
0.00030332752
0.00030019449
0.00029712631
0.00029412082
0.00029117597
0.0002882898
0.00028546044
0.00028268608
0.00027996499
0.00027729554
0.00027467613
0.00027210525
0.00026958145
0.00026710333
0.00026466956
0.00026227885
0.00025992997
0.00025762174
0.00025535301
0.0002531227
0.00025092976
0.00024877317
0.00024665197
0.00024456521
0.000242512
0.00024049148
0.0002385028
0.00023654517
0.00023461781
0.00023271996
0.00023085092
0.00022900997
0.00022719647
0.00022540974
0.00022364918
0.00022191417
0.00022020412
0.00021851846
0.00021685665
0.00021521814
0.00021360243
0.00021200901
0.0002104374
0.00020888712
0.00020735771
0.00020584873
0.00020435974
0.00020289032
0.00020144007
0.00020000858
0.00019859546
0.00019720034
0.00019582285
0.00019446262
0.00019311931
0.00019179259
0.00019048211
0.00018918755
0.00018790861
0.00018664498
0.00018539636
0.00018416246
0.00018294302
0.00018173776
0.00018054641
0.00017936874
0.00017820449
0.00017705344
0.00017591535
0.00017479002
0.00017367724
0.0001725768
0.00017148853
0.00017041223
0.00016934774
0.0001682949
0.00016725354
0.00016622352
0.0001652047
0.00016419694
0.00016320012
0.00016221412
0.00016123881
0.00016027409
0.00015931986
0.000158376
0.00015744242
0.00015651903
0.00015560573
0.00015470242
0.00015380903
0.00015292545
0.00015205159
0.00015118738
0.0001503327
0.00014948748
0.00014865162
0.00014782502
0.00014700759
0.00014619923
0.00014539983
0.00014460929
0.00014382751
0.00014305438
0.00014228979
0.00014153362
0.00014078577
0.00014004612
0.00013931455
0.00013859095
0.0001378752
0.00013716718
0.00013646677
0.00013577386
0.00013508832
0.00013441004
0.00013373891
0.0001330748
0.00013241759
0.00013176718
0.00013112344
0.00013048627
0.00012985553
0.00012923112
0.00012861293
0.00012800082
0.00012739469
0.00012679442
0.00012619989
0.00012561096
0.00012502753
0.00012444946
0.00012387663
0.00012330889
0.00012274614
0.00012218821
0.00012163499
0.00012108633
0.00012054209
0.00012000213
0.00011946631
0.00011893447
0.0001184065
0.00011788223
0.00011736153
0.00011684427
0.00011633032
0.00011581953
0.0001153118
0.00011480699
0.00011430502
0.00011380576
0.00011330912
0.00011281503
0.00011232341
0.0001118342
0.00011134733
0.00011086279
0.00011038053
0.00010990054
0.00010942283
0.0001089474
0.00010847428
0.0001080035
0.0001075351
0.00010706916
0.00010660573
0.0001061449
0.00010568676
0.00010523139
0.00010477891
0.00010432941
0.00010388302
0.00010343985
0.00010300001
0.00010256363
0.00010213081
0.00010170169
0.00010127638
0.00010085498
0.0001004376
0.00010002432
9.9615238e-05
9.9210413e-05
9.8809914e-05
9.8413792e-05
9.8022087e-05
9.7634824e-05
9.7252017e-05
9.6873668e-05
9.6499763e-05
9.6130277e-05
9.5765173e-05
9.54044e-05
9.5047898e-05
9.4695594e-05
9.4347405e-05
9.4003241e-05
9.3663002e-05
9.3326587e-05
9.29939e-05
9.2664978e-05
9.2340437e-05
9.2026159e-05
9.1754648e-05
0.011680008
0.0092070937
0.0075212655
0.0063120237
0.0054096007
0.0047145333
0.0041652249
0.0037217571
0.0033572627
0.0030530718