/*--------------------------------*- C++ -*----------------------------------*\
| =========                 |                                                 |
| \\      /  F ield         | OpenFOAM: The Open Source CFD Toolbox           |
|  \\    /   O peration     | Version:  2506                                  |
|   \\  /    A nd           | Website:  www.openfoam.com                      |
|    \\/     M anipulation  |                                                 |
\*---------------------------------------------------------------------------*/
FoamFile
{
    version     2.0;
    format      ascii;
    arch        "LSB;label=32;scalar=64";
    class       volVectorField;
    location    "5000";
    object      U;
}
// * * * * * * * * * * * * * * * * * * * * * * * * * * * * * * * * * * * * * //

dimensions      [0 1 -1 0 0 0 0];

internalField   nonuniform List<vector> 
68056
(
(1.000004 -9.2566593e-06 0)
(1.0000363 -2.6753043e-05 0)
(1.0001047 -4.3798837e-05 0)
(1.0002087 -6.0748856e-05 0)
(1.0003463 -7.7660021e-05 0)
(1.0005175 -9.4584823e-05 0)
(1.0007226 -0.00011157018 0)
(1.0009619 -0.00012863148 0)
(1.0012355 -0.00014577344 0)
(1.0015433 -0.0001630031 0)
(1.0018858 -0.00018032836 0)
(1.002263 -0.00019775653 0)
(1.0026751 -0.00021529461 0)
(1.0031224 -0.00023294952 0)
(1.0036052 -0.00025072774 0)
(1.0041236 -0.00026863513 0)
(1.004678 -0.00028667684 0)
(1.0052685 -0.00030485729 0)
(1.0058956 -0.00032318012 0)
(1.0065594 -0.00034164816 0)
(1.0072603 -0.0003602633 0)
(1.0079986 -0.00037902649 0)
(1.0087745 -0.00039793761 0)
(1.0095883 -0.0004169954 0)
(1.0104404 -0.00043619743 0)
(1.011331 -0.00045553996 0)
(1.0122605 -0.00047501796 0)
(1.0132289 -0.000494625 0)
(1.0142367 -0.00051435321 0)
(1.0152841 -0.00053419325 0)
(1.0163712 -0.00055413425 0)
(1.0174983 -0.00057416379 0)
(1.0186655 -0.00059426787 0)
(1.0198729 -0.00061443089 0)
(1.0211207 -0.00063463563 0)
(1.022409 -0.00065486323 0)
(1.0237377 -0.00067509323 0)
(1.0251068 -0.00069530348 0)
(1.0265164 -0.00071547029 0)
(1.0279662 -0.00073556826 0)
(1.0294561 -0.00075557053 0)
(1.0309859 -0.00077544857 0)
(1.0325553 -0.0007951725 0)
(1.034164 -0.00081471083 0)
(1.0358116 -0.0008340309 0)
(1.0374977 -0.00085309854 0)
(1.0392216 -0.00087187863 0)
(1.0409827 -0.00089033471 0)
(1.0427805 -0.00090842959 0)
(1.0446141 -0.00092612498 0)
(1.0464827 -0.00094338219 0)
(1.0483854 -0.00096016164 0)
(1.0503212 -0.00097642372 0)
(1.052289 -0.00099212825 0)
(1.0542877 -0.0010072354 0)
(1.056316 -0.001021705 0)
(1.0583727 -0.0010354979 0)
(1.0604563 -0.0010485748 0)
(1.0625654 -0.0010608976 0)
(1.0646984 -0.001072429 0)
(1.0668537 -0.0010831329 0)
(1.0690297 -0.0010929745 0)
(1.0712245 -0.0011019207 0)
(1.0734364 -0.0011099399 0)
(1.0756635 -0.0011170028 0)
(1.0779038 -0.0011230818 0)
(1.0801553 -0.001128152 0)
(1.082416 -0.0011321905 0)
(1.0846839 -0.0011351774 0)
(1.0869567 -0.001137095 0)
(1.0892324 -0.001137929 0)
(1.0915088 -0.0011376674 0)
(1.0937836 -0.0011363018 0)
(1.0960546 -0.0011338259 0)
(1.0983197 -0.0011302373 0)
(1.1005766 -0.0011255361 0)
(1.1028231 -0.0011197258 0)
(1.1050569 -0.0011128124 0)
(1.107276 -0.0011048054 0)
(1.109478 -0.0010957166 -5.1848014e-34)
(1.1116608 -0.0010855611 5.1797607e-34)
(1.1138224 -0.001074356 0)
(1.1159606 -0.0010621218 0)
(1.1180735 -0.0010488803 0)
(1.1201589 -0.0010346567 0)
(1.1222151 -0.0010194773 0)
(1.1242401 -0.001003371 0)
(1.126232 -0.00098636782 0)
(1.1281892 -0.00096849985 0)
(1.1301099 -0.00094980008 0)
(1.1319925 -0.0009303031 0)
(1.1338354 -0.00091004409 0)
(1.1356372 -0.00088905939 0)
(1.1373964 -0.00086738568 0)
(1.1391117 -0.00084506034 0)
(1.1407819 -0.00082212088 0)
(1.1424057 -0.00079860508 0)
(1.1439821 -0.00077455066 0)
(1.1455099 -0.00074999521 0)
(1.1469883 -0.00072497611 0)
(1.1484163 -0.00069953028 0)
(1.1497932 -0.00067369434 0)
(1.1511182 -0.00064750416 0)
(1.1523906 -0.00062099528 0)
(1.1536098 -0.00059420227 0)
(1.1547753 -0.00056715936 0)
(1.1558866 -0.00053989968 0)
(1.1569433 -0.00051245606 0)
(1.1579452 -0.00048486011 0)
(1.1588918 -0.00045714326 0)
(1.159783 -0.00042933563 0)
(1.1606187 -0.00040146731 0)
(1.1613987 -0.00037356706 0)
(1.1621231 -0.00034566377 0)
(1.1627917 -0.00031778504 0)
(1.1634048 -0.00028995873 0)
(1.1639624 -0.00026221154 0)
(1.1644646 -0.00023457056 0)
(1.1649118 -0.00020706184 0)
(1.1653042 -0.00017971196 0)
(1.1656422 -0.00015254662 0)
(1.1659261 -0.0001255922 0)
(1.1661563 -9.8874297e-05 0)
(1.1663333 -7.2419368e-05 0)
(1.1664578 -4.6253306e-05 0)
(1.1665301 -2.0403034e-05 0)
(1.1665511 5.1052004e-06 0)
(1.1665214 3.0244838e-05 0)
(1.1664417 5.4990089e-05 0)
(1.1663128 7.9314159e-05 0)
(1.1661355 0.00010319043 0)
(1.1659108 0.00012659145 0)
(1.1656396 0.00014949001 0)
(1.165323 0.00017185826 0)
(1.1649619 0.00019366856 0)
(1.1645575 0.00021489293 0)
(1.1641109 0.00023550362 0)
(1.1636235 0.00025547279 0)
(1.1630964 0.00027477294 0)
(1.162531 0.00029337679 0)
(1.1619287 0.00031125751 0)
(1.161291 0.00032838884 0)
(1.1606193 0.0003447451 0)
(1.1599151 0.0003603016 0)
(1.1591802 0.00037503442 0)
(1.1584161 0.00038892107 0)
(1.1576245 0.00040194005 0)
(1.1568071 0.00041407169 0)
(1.1559658 0.00042529757 0)
(1.1551023 0.00043560152 0)
(1.1542186 0.00044496883 0)
(1.1533163 0.00045338749 0)
(1.1523976 0.00046084719 0)
(1.1514642 0.00046734068 0)
(1.1505181 0.00047286269 0)
(1.1495613 0.00047741128 0)
(1.1485957 0.00048098675 0)
(1.1476232 0.00048359297 0)
(1.1466459 0.00048523627 0)
(1.1456655 0.00048592672 0)
(1.1446842 0.00048567701 0)
(1.1437036 0.00048450372 0)
(1.1427258 0.00048242612 0)
(1.1417524 0.00047946739 0)
(1.1407853 0.00047565352 0)
(1.1398263 0.00047101429 0)
(1.1388768 0.00046558234 0)
(1.1379386 0.00045939387 0)
(1.1370132 0.00045248797 0)
(1.136102 0.00044490698 0)
(1.1352063 0.00043669605 0)
(1.1343275 0.00042790315 0)
(1.1334667 0.00041857901 0)
(1.132625 0.00040877659 0)
(1.1318034 0.00039855149 0)
(1.1310026 0.0003879609 0)
(1.1302236 0.00037706444 0)
(1.1294667 0.00036592261 0)
(1.1287327 0.00035459808 0)
(1.1280218 0.0003431536 0)
(1.1273343 0.00033165378 0)
(1.1266703 0.00032016244 0)
(1.1260298 0.00030874495 0)
(1.1254127 0.00029746491 0)
(1.1248186 0.00028638715 0)
(1.1242472 0.00027557374 0)
(1.123698 0.00026508758 0)
(1.1231704 0.00025498784 0)
(1.1226634 0.00024533414 0)
(1.1221763 0.00023618134 0)
(1.121708 0.00022758437 0)
(1.1212575 0.00021959246 0)
(1.1208234 0.00021225453 0)
(1.1204046 0.00020561284 0)
(1.1199995 0.00019970907 0)
(1.1196068 0.00019457733 0)
(1.1192247 0.00019025092 0)
(1.1188519 0.00018675478 0)
(1.1184864 0.00018411283 0)
(1.1181267 0.00018233999 0)
(1.1177709 0.00018145007 0)
(1.1174173 0.0001814473 0)
(1.1170641 0.00018233484 0)
(1.1167095 0.00018410589 0)
(1.1163516 0.00018675263 0)
(1.1159888 0.00019025714 0)
(1.1156192 0.00019460065 0)
(1.1152411 0.00019975426 0)
(1.114853 0.00020568856 0)
(1.1144531 0.00021236413 0)
(1.1140401 0.00021974149 0)
(1.1136124 0.00022777149 0)
(1.1131687 0.00023640543 0)
(1.1127077 0.00024558544 0)
(1.1122285 0.0002552547 0)
(1.1117298 0.00026534792 0)
(1.1112109 0.0002758015 0)
(1.1106709 0.00028654418 0)
(1.1101093 0.00029750711 0)
(1.1095256 0.00030861468 0)
(1.1089195 0.00031979446 0)
(1.1082908 0.00033096824 0)
(1.1076394 0.00034206173 0)
(1.1069656 0.00035299591 0)
(1.1062695 0.00036369638 0)
(1.1055516 0.00037408511 0)
(1.1048126 0.00038408934 0)
(1.1040531 0.00039363375 0)
(1.103274 0.00040264884 0)
(1.1024764 0.00041106367 0)
(1.1016615 0.0004188135 0)
(1.1008306 0.00042583324 0)
(1.0999851 0.00043206431 0)
(1.0991265 0.00043744873 0)
(1.0982566 0.00044193526 0)
(1.0973772 0.00044547414 0)
(1.09649 0.00044802241 0)
(1.0955972 0.00044953942 0)
(1.0947007 0.00044999125 0)
(1.0938027 0.00044934698 0)
(1.0929054 0.00044758225 0)
(1.092011 0.00044467637 0)
(1.0911217 0.00044061481 0)
(1.0902401 0.00043538733 0)
(1.0893682 0.0004289894 0)
(1.0885086 0.00042142124 0)
(1.0876636 0.00041268826 0)
(1.0868355 0.00040280102 0)
(1.0860266 0.00039177467 0)
(1.0852393 0.00037962985 0)
(1.0844758 0.00036639108 0)
(1.0837383 0.00035208865 0)
(1.0830289 0.00033675601 0)
(1.0823499 0.00032043261 0)
(1.0817031 0.00030316025 0)
(1.0810905 0.00028498691 0)
(1.0805139 0.00026596211 0)
(1.0799751 0.00024614167 0)
(1.0794758 0.0002255821 0)
(1.0790173 0.00020434632 0)
(1.0786012 0.00018249703 0)
(1.0782287 0.0001601034 0)
(1.0779008 0.00013723351 0)
(1.0776187 0.00011396192 0)
(1.0773832 9.0361109e-05 0)
(1.0771949 6.6509988e-05 0)
(1.0770544 4.2484416e-05 0)
(1.0769621 1.8366553e-05 0)
(1.0769182 -5.7658139e-06 0)
(1.0769228 -2.9829813e-05 0)
(1.0769759 -5.3748638e-05 0)
(1.077077 -7.74392e-05 0)
(1.0772259 -0.00010082423 0)
(1.077422 -0.00012382045 0)
(1.0776645 -0.00014635156 0)
(1.0779526 -0.00016833549 0)
(1.0782851 -0.00018969827 0)
(1.0786609 -0.00021036046 0)
(1.0790786 -0.00023025175 0)
(1.0795367 -0.00024929669 0)
(1.0800335 -0.00026743001 0)
(1.0805672 -0.00028458164 0)
(1.0811358 -0.00030069265 0)
(1.0817374 -0.00031569974 0)
(1.0823697 -0.00032955159 0)
(1.0830305 -0.00034219302 0)
(1.0837172 -0.00035358167 0)
(1.0844274 -0.00036367193 0)
(1.0851586 -0.00037243195 0)
(1.085908 -0.00037982741 0)
(1.0866729 -0.00038583894 0)
(1.0874506 -0.00039044586 0)
(1.0882381 -0.0003936443 0)
(1.0890328 -0.00039543033 0)
(1.0898316 -0.00039582841 0)
(1.0906326 -0.00039482235 0)
(1.0914289 -0.00039265407 0)
(1.0922371 -0.00038857746 0)
(1.0929617 -0.00038634205 0)
(1.0940201 -0.00037004219 0)
(1.000003 -2.6525075e-05 0)
(1.0000341 -7.8271843e-05 0)
(1.0001009 -0.00012938831 0)
(1.0002036 -0.0001803721 0)
(1.0003401 -0.00023130485 0)
(1.0005103 -0.00028227431 0)
(1.0007147 -0.00033337521 0)
(1.0009533 -0.00038465733 0)
(1.0012263 -0.00043615038 0)
(1.0015337 -0.00048788439 0)
(1.0018756 -0.00053988861 0)
(1.0022524 -0.0005921894 0)
(1.0026641 -0.00064481093 0)
(1.0031111 -0.00069777582 0)
(1.0035934 -0.00075110464 0)
(1.0041115 -0.00080481583 0)
(1.0046654 -0.00085892543 0)
(1.0052556 -0.00091344723 0)
(1.0058823 -0.00096839251 0)
(1.0065457 -0.0010237701 0)
(1.0072461 -0.001079586 0)
(1.0079839 -0.0011358434 0)
(1.0087594 -0.0011925422 0)
(1.0095727 -0.0012496791 0)
(1.0104243 -0.0013072472 0)
(1.0113144 -0.0013652358 0)
(1.0122433 -0.00142363 0)
(1.0132112 -0.0014824113 0)
(1.0142184 -0.0015415562 0)
(1.0152651 -0.0016010374 0)
(1.0163516 -0.0016608226 0)
(1.017478 -0.001720875 0)
(1.0186446 -0.0017811529 0)
(1.0198514 -0.0018416098 0)
(1.0210985 -0.0019021944 0)
(1.0223861 -0.0019628504 0)
(1.0237141 -0.0020235167 0)
(1.0250826 -0.0020841272 0)
(1.0264915 -0.0021446107 0)
(1.0279406 -0.0022048917 0)
(1.0294299 -0.0022648894 0)
(1.0309591 -0.0023245187 0)
(1.0325279 -0.0023836899 0)
(1.0341361 -0.0024423089 0)
(1.0357832 -0.0025002776 0)
(1.0374687 -0.002557494 0)
(1.0391922 -0.0026138525 0)
(1.040953 -0.0026692442 0)
(1.0427504 -0.0027235571 0)
(1.0445837 -0.002776677 0)
(1.0464521 -0.0028284872 0)
(1.0483546 -0.0028788696 0)
(1.0502903 -0.0029277049 0)
(1.0522581 -0.0029748729 0)
(1.0542568 -0.0030202536 0)
(1.0562852 -0.0030637271 0)
(1.0583421 -0.0031051748 0)
(1.060426 -0.0031444796 0)
(1.0625354 -0.0031815268 0)
(1.0646689 -0.0032162042 0)
(1.0668247 -0.0032484035 0)
(1.0690013 -0.0032780201 0)
(1.0711968 -0.0033049543 0)
(1.0734094 -0.0033291115 0)
(1.0756374 -0.0033504032 0)
(1.0778786 -0.0033687468 0)
(1.0801311 -0.0033840671 0)
(1.0823929 -0.0033962956 0)
(1.084662 -0.003405372 0)
(1.0869361 -0.0034112439 0)
(1.0892131 -0.0034138673 0)
(1.0914908 -0.0034132069 0)
(1.0937671 -0.0034092364 0)
(1.0960397 -0.0034019382 0)
(1.0983065 -0.0033913043 0)
(1.100565 -0.0033773353 0)
(1.1028133 -0.0033600414 0)
(1.1050489 -0.0033394412 0)
(1.1072699 -0.0033155627 0)
(1.1094738 -0.003288442 9.8224785e-34)
(1.1116587 -0.003258124 -9.8115224e-34)
(1.1138224 -0.0032246612 0)
(1.1159628 -0.0031881138 0)
(1.1180778 -0.0031485492 0)
(1.1201656 -0.0031060417 0)
(1.1222241 -0.0030606715 0)
(1.1242516 -0.0030125248 0)
(1.126246 -0.0029616928 0)
(1.1282058 -0.0029082715 0)
(1.1301292 -0.0028523606 0)
(1.1320146 -0.0027940638 0)
(1.1338605 -0.0027334874 0)
(1.1356653 -0.0026707402 0)
(1.1374276 -0.002605933 0)
(1.1391462 -0.0025391776 0)
(1.1408198 -0.0024705871 0)
(1.1424471 -0.0024002747 0)
(1.1440272 -0.0023283536 0)
(1.1455589 -0.0022549366 0)
(1.1470413 -0.0021801355 0)
(1.1484735 -0.0021040611 0)
(1.1498548 -0.0020268227 0)
(1.1511843 -0.0019485278 0)
(1.1524615 -0.0018692822 0)
(1.1536857 -0.0017891893 0)
(1.1548565 -0.0017083508 0)
(1.1559732 -0.0016268656 0)
(1.1570357 -0.0015448307 0)
(1.1580434 -0.0014623404 0)
(1.1589962 -0.0013794871 0)
(1.1598939 -0.0012963604 0)
(1.1607362 -0.0012130484 0)
(1.1615232 -0.0011296363 0)
(1.1622547 -0.0010462083 0)
(1.1629307 -0.00096284587 0)
(1.1635515 -0.00087962979 0)
(1.1641169 -0.00079663866 0)
(1.1646273 -0.00071395063 0)
(1.1650828 -0.00063164214 0)
(1.1654838 -0.00054978961 0)
(1.1658304 -0.00046846822 0)
(1.1661232 -0.00038775356 0)
(1.1663624 -0.00030772042 0)
(1.1665486 -0.00022844448 0)
(1.1666823 -0.00015000103 0)
(1.1667639 -7.2466777e-05 0)
(1.1667942 4.0820047e-06 0)
(1.1667738 7.9568742e-05 0)
(1.1667033 0.00015391728 0)
(1.1665836 0.00022704977 0)
(1.1664154 0.00029888816 0)
(1.1661996 0.00036935264 0)
(1.165937 0.00043836334 0)
(1.1656287 0.00050583877 0)
(1.1652756 0.00057169756 0)
(1.1648789 0.00063585715 0)
(1.1644395 0.00069823539 0)
(1.1639588 0.00075874944 0)
(1.1634378 0.00081731738 0)
(1.162878 0.00087385717 0)
(1.1622806 0.00092828828 0)
(1.161647 0.00098053085 0)
(1.1609787 0.0010305072 0)
(1.1602771 0.0010781411 0)
(1.1595438 0.0011233596 0)
(1.1587804 0.0011660921 0)
(1.1579885 0.0012062721 0)
(1.1571699 0.0012438363 0)
(1.1563261 0.0012787268 0)
(1.1554591 0.0013108899 0)
(1.1545706 0.001340278 0)
(1.1536625 0.001366849 0)
(1.1527365 0.0013905678 0)
(1.1517947 0.0014114057 0)
(1.1508389 0.0014293419 0)
(1.1498711 0.0014443631 0)
(1.1488932 0.0014564646 0)
(1.1479071 0.0014656498 0)
(1.1469149 0.0014719315 0)
(1.1459183 0.0014753316 0)
(1.1449195 0.0014758814 0)
(1.1439202 0.0014736218 0)
(1.1429225 0.0014686038 0)
(1.141928 0.0014608881 0)
(1.1409387 0.0014505456 0)
(1.1399563 0.001437657 0)
(1.1389826 0.0014223131 0)
(1.1380191 0.0014046143 0)
(1.1370676 0.0013846709 0)
(1.1361295 0.0013626023 0)
(1.1352064 0.0013385373 0)
(1.1342994 0.0013126132 0)
(1.1334101 0.0012849757 0)
(1.1325394 0.0012557784 0)
(1.1316886 0.0012251825 0)
(1.1308585 0.0011933552 0)
(1.1300501 0.0011604707 0)
(1.1292641 0.0011267078 0)
(1.1285012 0.0010922508 0)
(1.1277618 0.001057287 0)
(1.1270464 0.0010220076 0)
(1.1263552 0.00098660503 0)
(1.1256884 0.00095127398 0)
(1.1250459 0.00091620845 0)
(1.1244276 0.00088160271 0)
(1.1238333 0.00084764833 0)
(1.1232625 0.00081453527 0)
(1.1227148 0.00078244859 0)
(1.1221896 0.00075156979 0)
(1.121686 0.00072207323 0)
(1.1212032 0.00069412784 0)
(1.1207401 0.00066789315 0)
(1.1202957 0.00064352139 0)
(1.1198688 0.00062115331 0)
(1.119458 0.00060092057 0)
(1.1190619 0.00058294138 0)
(1.1186791 0.00056732328 0)
(1.118308 0.00055415856 0)
(1.1179469 0.00054352753 0)
(1.1175941 0.00053549372 0)
(1.117248 0.00053010761 0)
(1.1169068 0.00052740175 0)
(1.1165685 0.00052739488 0)
(1.1162315 0.00053008699 0)
(1.1158939 0.00053546393 0)
(1.1155538 0.00054349241 0)
(1.1152095 0.00055412503 0)
(1.1148591 0.00056729532 0)
(1.1145009 0.00058292315 0)
(1.1141333 0.00060090982 0)
(1.1137546 0.00062114386 0)
(1.1133631 0.0006434962 0)
(1.1129576 0.00066782631 0)
(1.1125364 0.00069397738 0)
(1.1120984 0.00072178288 0)
(1.1116423 0.00075106174 0)
(1.1111671 0.00078162518 0)
(1.1106718 0.00081327201 0)
(1.1101556 0.00084579556 0)
(1.1096178 0.0008789792 0)
(1.1090579 0.00091260323 0)
(1.1084755 0.0009464406 0)
(1.1078704 0.0009802638 0)
(1.1072424 0.0010138406 0)
(1.1065915 0.0010469411 0)
(1.1059182 0.0010793331 0)
(1.1052226 0.0011107896 0)
(1.1045053 0.001141084 0)
(1.103767 0.001169997 0)
(1.1030085 0.0011973125 0)
(1.1022308 0.0012228241 0)
(1.1014351 0.0012463306 0)
(1.1006225 0.0012676427 0)
(1.0997944 0.0012865786 0)
(1.0989524 0.0013029696 0)
(1.0980981 0.0013166567 0)
(1.0972332 0.0013274955 0)
(1.0963596 0.0013353525 0)
(1.0954791 0.0013401097 0)
(1.0945939 0.0013416618 0)
(1.093706 0.0013399193 0)
(1.0928175 0.0013348062 0)
(1.0919308 0.0013262629 0)
(1.091048 0.0013142436 0)
(1.0901715 0.0012987194 0)
(1.0893036 0.0012796752 0)
(1.0884467 0.0012571125 0)
(1.0876031 0.001231047 0)
(1.0867751 0.0012015101 0)
(1.0859651 0.0011685475 0)
(1.0851755 0.0011322201 0)
(1.0844084 0.0010926024 0)
(1.0836662 0.0010497832 0)
(1.0829509 0.0010038649 0)
(1.0822649 0.0009549626 0)
(1.08161 0.00090320454 0)
(1.0809883 0.00084873064 0)
(1.0804016 0.00079169309 0)
(1.0798518 0.00073225446 0)
(1.0793406 0.00067058875 0)
(1.0788695 0.00060687892 0)
(1.0784399 0.00054131847 0)
(1.0780533 0.00047410832 0)
(1.0777108 0.00040545892 0)
(1.0774134 0.0003355865 0)
(1.0771622 0.00026471562 0)
(1.076958 0.00019307484 0)
(1.0768012 0.00012089965 0)
(1.0766925 4.8426616e-05 0)
(1.0766321 -2.4103318e-05 0)
(1.0766203 -9.645087e-05 0)
(1.0766569 -0.00016837411 0)
(1.0767419 -0.00023963249 0)
(1.076875 -0.00030998232 0)
(1.0770557 -0.00037918343 0)
(1.0772832 -0.0004469942 0)
(1.0775569 -0.00051317878 0)
(1.0778757 -0.00057750165 0)
(1.0782386 -0.00063973532 0)
(1.0786442 -0.00069965449 0)
(1.0790911 -0.00075704416 0)
(1.0795777 -0.00081169337 0)
(1.0801023 -0.00086340373 0)
(1.080663 -0.00091198278 0)
(1.0812578 -0.00095725286 0)
(1.0818846 -0.0009990442 0)
(1.0825411 -0.0010372041 0)
(1.083225 -0.0010715898 0)
(1.0839339 -0.0011020782 0)
(1.084665 -0.0011285587 0)
(1.0854159 -0.0011509434 0)
(1.0861838 -0.0011691604 0)
(1.086966 -0.001183165 0)
(1.0877596 -0.0011929333 0)
(1.0885618 -0.001198489 0)
(1.0893703 -0.0011998286 0)
(1.0901788 -0.0011973009 0)
(1.0910017 -0.0011900586 0)
(1.0917511 -0.0011828916 0)
(1.0928344 -0.0011553322 0)
(1.0000031 -4.2841347e-05 0)
(1.0000343 -0.00012817981 0)
(1.0001006 -0.00021326078 0)
(1.0002026 -0.00029829324 0)
(1.0003383 -0.00038334448 0)
(1.0005078 -0.00046848951 0)
(1.0007113 -0.00055382062 0)
(1.0009492 -0.00063941319 0)
(1.0012213 -0.00072532797 0)
(1.0015279 -0.00081162109 0)
(1.0018691 -0.00089834511 0)
(1.0022451 -0.00098554795 0)
(1.0026561 -0.0010732733 0)
(1.0031022 -0.0011615611 0)
(1.0035838 -0.0012504474 0)
(1.0041011 -0.0013399643 0)
(1.0046543 -0.0014301397 0)
(1.0052437 -0.0015209977 0)
(1.0058695 -0.0016125579 0)
(1.0065322 -0.0017048357 0)
(1.0072318 -0.0017978419 0)
(1.0079688 -0.0018915823 0)
(1.0087435 -0.0019860574 0)
(1.0095561 -0.0020812623 0)
(1.0104069 -0.0021771861 0)
(1.0112962 -0.0022738114 0)
(1.0122242 -0.0023711146 0)
(1.0131914 -0.0024690649 0)
(1.0141978 -0.0025676243 0)
(1.0152438 -0.0026667476 0)
(1.0163296 -0.0027663816 0)
(1.0174553 -0.0028664656 0)
(1.0186212 -0.0029669306 0)
(1.0198274 -0.0030676997 0)
(1.021074 -0.0031686878 0)
(1.022361 -0.0032698013 0)
(1.0236886 -0.0033709387 0)
(1.0250566 -0.0034719901 0)
(1.0264651 -0.0035728374 0)
(1.027914 -0.0036733544 0)
(1.0294031 -0.0037734071 0)
(1.0309322 -0.0038728534 0)
(1.0325011 -0.003971544 0)
(1.0341093 -0.0040693221 0)
(1.0357566 -0.0041660243 0)
(1.0374425 -0.0042614803 0)
(1.0391664 -0.004355514 0)
(1.0409277 -0.0044479439 0)
(1.0427259 -0.0045385831 0)
(1.04456 -0.0046272408 0)
(1.0464294 -0.0047137225 0)
(1.048333 -0.0047978308 0)
(1.05027 -0.0048793663 0)
(1.0522392 -0.0049581286 0)
(1.0542395 -0.0050339168 0)
(1.0562696 -0.0051065308 0)
(1.0583284 -0.0051757722 0)
(1.0604143 -0.0052414453 0)
(1.0625259 -0.0053033581 0)
(1.0646617 -0.0053613233 0)
(1.06682 -0.0054151593 0)
(1.0689992 -0.0054646915 0)
(1.0711975 -0.0055097528 0)
(1.073413 -0.0055501852 0)
(1.075644 -0.0055858402 0)
(1.0778884 -0.00561658 0)
(1.0801442 -0.0056422781 0)
(1.0824094 -0.0056628205 0)
(1.084682 -0.0056781058 0)
(1.0869597 -0.0056880464 0)
(1.0892404 -0.0056925688 0)
(1.0915219 -0.0056916138 0)
(1.0938021 -0.0056851373 0)
(1.0960786 -0.0056731102 0)
(1.0983493 -0.0056555187 0)
(1.1006119 -0.0056323643 0)
(1.1028642 -0.0056036636 0)
(1.105104 -0.0055694486 0)
(1.107329 -0.0055297656 0)
(1.1095371 -0.0054846756 1.3105978e-33)
(1.1117261 -0.0054342535 -1.3091485e-33)
(1.1138939 -0.0053785877 0)
(1.1160385 -0.0053177788 0)
(1.1181577 -0.0052519402 0)
(1.1202496 -0.0051811959 0)
(1.1223122 -0.0051056807 0)
(1.1243437 -0.0050255389 0)
(1.1263422 -0.0049409233 0)
(1.128306 -0.0048519946 0)
(1.1302334 -0.0047589202 0)
(1.1321228 -0.0046618733 0)
(1.1339726 -0.0045610321 0)
(1.1357813 -0.0044565787 0)
(1.1375476 -0.0043486983 0)
(1.1392701 -0.0042375782 0)
(1.1409476 -0.0041234073 0)
(1.1425788 -0.0040063747 0)
(1.1441627 -0.0038866696 0)
(1.1456983 -0.0037644802 0)
(1.1471846 -0.0036399932 0)
(1.1486208 -0.0035133932 0)
(1.150006 -0.0033848624 0)
(1.1513395 -0.0032545799 0)
(1.1526207 -0.0031227215 0)
(1.153849 -0.0029894595 0)
(1.1550239 -0.0028549623 0)
(1.1561448 -0.0027193946 0)
(1.1572115 -0.0025829166 0)
(1.1582236 -0.0024456849 0)
(1.1591808 -0.0023078518 0)
(1.160083 -0.0021695657 0)
(1.1609299 -0.0020309711 0)
(1.1617216 -0.0018922091 0)
(1.1624579 -0.0017534173 0)
(1.1631388 -0.0016147302 0)
(1.1637645 -0.0014762792 0)
(1.164335 -0.0013381938 0)
(1.1648506 -0.0012006008 0)
(1.1653113 -0.0010636257 0)
(1.1657176 -0.00092739217 0)
(1.1660697 -0.00079202335 0)
(1.1663679 -0.00065764133 0)
(1.1666126 -0.00052436836 0)
(1.1668044 -0.00039232641 0)
(1.1669436 -0.00026163833 0)
(1.1670309 -0.00013242739 0)
(1.1670667 -4.8179119e-06 0)
(1.1670519 0.00012106679 0)
(1.1669869 0.00024510139 0)
(1.1668726 0.00036715953 0)
(1.1667097 0.00048711297 0)
(1.166499 0.00060483213 0)
(1.1662414 0.00072018559 0)
(1.1659379 0.00083304061 0)
(1.1655894 0.00094326297 0)
(1.165197 0.0010507176 0)
(1.1647617 0.0011552684 0)
(1.1642846 0.0012567793 0)
(1.163767 0.001355114 0)
(1.16321 0.0014501368 0)
(1.1626151 0.001541713 0)
(1.1619834 0.0016297097 0)
(1.1613165 0.0017139961 0)
(1.1606158 0.0017944447 0)
(1.1598828 0.0018709316 0)
(1.1591191 0.0019433373 0)
(1.1583261 0.002011548 0)
(1.1575057 0.0020754556 0)
(1.1566595 0.0021349594 0)
(1.1557893 0.0021899661 0)
(1.1548967 0.0022403916 0)
(1.1539837 0.0022861607 0)
(1.1530521 0.0023272092 0)
(1.1521037 0.0023634835 0)
(1.1511405 0.0023949422 0)
(1.1501643 0.0024215563 0)
(1.1491772 0.0024433107 0)
(1.148181 0.0024602036 0)
(1.1471777 0.0024722482 0)
(1.1461692 0.0024794726 0)
(1.1451575 0.0024819206 0)
(1.1441446 0.0024796517 0)
(1.1431322 0.0024727419 0)
(1.1421223 0.0024612835 0)
(1.1411168 0.0024453852 0)
(1.1401174 0.0024251727 0)
(1.1391259 0.002400788 0)
(1.138144 0.0023723896 0)
(1.1371734 0.0023401522 0)
(1.1362157 0.0023042663 0)
(1.1352723 0.002264938 0)
(1.1343447 0.0022223881 0)
(1.1334343 0.0021768518 0)
(1.1325422 0.0021285777 0)
(1.1316698 0.0020778273 0)
(1.1308179 0.0020248737 0)
(1.1299877 0.0019700009 0)
(1.1291798 0.0019135026 0)
(1.1283952 0.0018556808 0)
(1.1276343 0.0017968453 0)
(1.1268976 0.0017373109 0)
(1.1261855 0.0016773978 0)
(1.1254983 0.0016174284 0)
(1.1248361 0.0015577273 0)
(1.1241988 0.0014986181 0)
(1.1235862 0.0014404234 0)
(1.1229981 0.0013834616 0)
(1.1224341 0.0013280467 0)
(1.1218936 0.0012744849 0)
(1.121376 0.0012230748 0)
(1.1208804 0.0011741033 0)
(1.120406 0.0011278468 0)
(1.1199517 0.0010845663 0)
(1.1195163 0.0010445089 0)
(1.1190988 0.0010079032 0)
(1.1186976 0.00097496065 0)
(1.1183114 0.00094587138 0)
(1.1179387 0.00092080555 0)
(1.1175778 0.00089990912 0)
(1.1172272 0.00088330593 0)
(1.1168851 0.00087109332 0)
(1.1165498 0.00086334466 0)
(1.1162194 0.00086010515 0)
(1.1158921 0.00086139475 0)
(1.1155662 0.00086720418 0)
(1.1152397 0.00087749834 0)
(1.1149108 0.00089221245 0)
(1.1145777 0.00091125605 0)
(1.1142386 0.00093450934 0)
(1.1138918 0.00096182763 0)
(1.1135355 0.00099303797 0)
(1.113168 0.0010279441 0)
(1.1127879 0.0010663231 0)
(1.1123937 0.0011079313 0)
(1.1119838 0.0011525007 0)
(1.1115571 0.0011997451 0)
(1.1111123 0.0012493576 0)
(1.1106483 0.0013010163 0)
(1.1101642 0.001354382 0)
(1.1096592 0.0014091045 0)
(1.1091326 0.0014648204 0)
(1.1085838 0.0015211596 0)
(1.1080124 0.0015777428 0)
(1.1074183 0.0016341884 0)
(1.1068012 0.0016901104 0)
(1.1061613 0.0017451244 0)
(1.1054987 0.0017988464 0)
(1.1048138 0.0018508983 0)
(1.1041072 0.0019009066 0)
(1.1033795 0.0019485078 0)
(1.1026315 0.0019933472 0)
(1.1018641 0.0020350837 0)
(1.1010786 0.0020733888 0)
(1.1002761 0.0021079511 0)
(1.099458 0.002138475 0)
(1.0986258 0.0021646844 0)
(1.0977811 0.0021863225 0)
(1.0969256 0.002203154 0)
(1.0960612 0.002214965 0)
(1.0951898 0.0022215651 0)
(1.0943134 0.002222787 0)
(1.093434 0.0022184881 0)
(1.0925538 0.0022085501 0)
(1.0916751 0.00219288 0)
(1.0908001 0.0021714099 0)
(1.089931 0.0021440974 0)
(1.0890702 0.0021109255 0)
(1.0882201 0.0020719023 0)
(1.0873829 0.0020270615 0)
(1.0865611 0.0019764608 0)
(1.0857569 0.0019201832 0)
(1.0849726 0.001858335 0)
(1.0842107 0.0017910465 0)
(1.0834731 0.0017184704 0)
(1.0827623 0.0016407821 0)
(1.0820802 0.0015581781 0)
(1.081429 0.0014708763 0)
(1.0808106 0.0013791138 0)
(1.0802269 0.0012831476 0)
(1.0796797 0.0011832522 0)
(1.0791708 0.0010797202 0)
(1.0787017 0.00097285968 0)
(1.0782739 0.00086299506 0)
(1.0778887 0.00075046364 0)
(1.0775474 0.00063561745 0)
(1.0772511 0.00051881875 0)
(1.0770007 0.00040044253 0)
(1.076797 0.00028087135 0)
(1.0766407 0.00016049647 0)
(1.0765323 3.9709369e-05 0)
(1.0764721 -8.1092104e-05 0)
(1.0764604 -0.00020150869 0)
(1.0764972 -0.00032113671 0)
(1.0765824 -0.00043957292 0)
(1.0767157 -0.00055641136 0)
(1.0768967 -0.0006712501 0)
(1.0771246 -0.00078368752 0)
(1.0773989 -0.00089332944 0)
(1.0777185 -0.00099978527 0)
(1.0780824 -0.0011026754 0)
(1.0784892 -0.0012016271 0)
(1.0789376 -0.0012962822 0)
(1.079426 -0.0013862928 0)
(1.0799528 -0.0014713292 0)
(1.080516 -0.0015510753 0)
(1.0811138 -0.001625237 0)
(1.0817439 -0.0016935373 0)
(1.0824041 -0.0017557247 0)
(1.0830922 -0.001811569 0)
(1.0838056 -0.0018608695 0)
(1.0845418 -0.0019034514 0)
(1.0852982 -0.001939175 0)
(1.0860721 -0.0019679324 0)
(1.0868607 -0.0019896603 0)
(1.0876612 -0.0020043387 0)
(1.0884713 -0.0020120097 0)
(1.0892847 -0.0020127837 0)
(1.0901156 -0.0020068606 0)
(1.0908755 -0.0019950182 0)
(1.0919764 -0.0019715269 0)
(1.0000032 -5.9570277e-05 0)
(1.0000343 -0.00017865656 0)
(1.0001006 -0.00029758559 0)
(1.0002024 -0.00041649741 0)
(1.0003378 -0.00053549816 0)
(1.0005067 -0.00065468267 0)
(1.0007097 -0.00077414817 0)
(1.0009468 -0.00089398583 0)
(1.0012182 -0.0010142771 0)
(1.001524 -0.0011350978 0)
(1.0018644 -0.0012565191 0)
(1.0022395 -0.0013786074 0)
(1.0026495 -0.0015014239 0)
(1.0030947 -0.0016250248 0)
(1.0035753 -0.0017494607 0)
(1.0040916 -0.0018747772 0)
(1.0046438 -0.0020010141 0)
(1.0052322 -0.0021282056 0)
(1.005857 -0.0022563799 0)
(1.0065186 -0.0023855592 0)
(1.0072172 -0.0025157592 0)
(1.0079531 -0.0026469886 0)
(1.0087268 -0.002779249 0)
(1.0095383 -0.0029125339 0)
(1.0103881 -0.0030468289 0)
(1.0112764 -0.0031821105 0)
(1.0122035 -0.0033183463 0)
(1.0131697 -0.003455494 0)
(1.0141753 -0.0035935012 0)
(1.0152205 -0.0037323052 0)
(1.0163055 -0.0038718325 0)
(1.0174305 -0.0040119984 0)
(1.0185958 -0.0041527073 0)
(1.0198014 -0.0042938518 0)
(1.0210475 -0.0044353132 0)
(1.0223342 -0.0045769611 0)
(1.0236615 -0.0047186535 0)
(1.0250294 -0.0048602368 0)
(1.0264379 -0.0050015457 0)
(1.027887 -0.0051424038 0)
(1.0293763 -0.0052826233 0)
(1.0309059 -0.0054220054 0)
(1.0324753 -0.0055603407 0)
(1.0340844 -0.0056974096 0)
(1.0357326 -0.0058329829 0)
(1.0374196 -0.0059668219 0)
(1.0391449 -0.0060986795 0)
(1.0409078 -0.0062283008 0)
(1.0427077 -0.0063554238 0)
(1.0445438 -0.0064797806 0)
(1.0464154 -0.0066010979 0)
(1.0483214 -0.0067190986 0)
(1.0502611 -0.0068335024 0)
(1.0522332 -0.0069440276 0)
(1.0542366 -0.0070503921 0)
(1.0562701 -0.0071523143 0)
(1.0583324 -0.0072495154 0)
(1.0604222 -0.0073417201 0)
(1.0625378 -0.0074286583 0)
(1.0646779 -0.0075100664 0)
(1.0668407 -0.007585689 0)
(1.0690246 -0.0076552803 0)
(1.0712278 -0.0077186052 0)
(1.0734484 -0.0077754412 0)
(1.0756846 -0.0078255794 0)
(1.0779345 -0.0078688256 0)
(1.0801959 -0.0079050021 0)
(1.0824669 -0.0079339481 0)
(1.0847453 -0.0079555211 0)
(1.087029 -0.0079695978 0)
(1.0893158 -0.0079760746 0)
(1.0916035 -0.0079748685 0)
(1.0938899 -0.0079659175 0)
(1.0961728 -0.0079491807 0)
(1.0984499 -0.007924639 0)
(1.1007188 -0.0078922947 0)
(1.1029775 -0.0078521716 0)
(1.1052237 -0.0078043147 0)
(1.1074551 -0.0077487898 0)
(1.1096695 -0.0076856831 8.2045628e-35)
(1.1118648 -0.0076151003 -8.1955598e-35)
(1.1140388 -0.0075371662 0)
(1.1161895 -0.0074520232 0)
(1.1183147 -0.0073598308 0)
(1.1204126 -0.0072607644 0)
(1.1224811 -0.007155014 0)
(1.1245183 -0.0070427831 0)
(1.1265224 -0.0069242872 0)
(1.1284917 -0.0067997526 0)
(1.1304245 -0.0066694154 0)
(1.1323191 -0.0065335196 0)
(1.134174 -0.0063923161 0)
(1.1359877 -0.0062460612 0)
(1.1377588 -0.0060950155 0)
(1.1394859 -0.0059394427 0)
(1.1411679 -0.0057796081 0)
(1.1428036 -0.0056157777 0)
(1.1443918 -0.0054482173 0)
(1.1459316 -0.0052771909 0)
(1.1474219 -0.0051029608 0)
(1.148862 -0.0049257857 0)
(1.1502511 -0.004745921 0)
(1.1515883 -0.0045636175 0)
(1.1528732 -0.0043791215 0)
(1.154105 -0.0041926738 0)
(1.1552834 -0.0040045097 0)
(1.1564077 -0.0038148589 0)
(1.1574778 -0.0036239453 0)
(1.1584932 -0.0034319865 0)
(1.1594537 -0.0032391948 0)
(1.160359 -0.0030457762 0)
(1.1612092 -0.0028519317 0)
(1.162004 -0.0026578564 0)
(1.1627434 -0.0024637411 0)
(1.1634274 -0.0022697716 0)
(1.1640562 -0.0020761298 0)
(1.1646298 -0.0018829937 0)
(1.1651485 -0.0016905384 0)
(1.1656123 -0.0014989363 0)
(1.1660216 -0.0013083577 0)
(1.1663766 -0.0011189713 0)
(1.1666778 -0.00093094508 0)
(1.1669256 -0.00074444622 0)
(1.1671202 -0.00055964226 0)
(1.1672623 -0.00037670118 0)
(1.1673524 -0.00019579214 0)
(1.1673911 -1.7085319e-05 0)
(1.1673788 0.00015925072 0)
(1.1673165 0.0003330443 0)
(1.1672046 0.0005041215 0)
(1.1670441 0.00067230611 0)
(1.1668356 0.00083741935 0)
(1.1665801 0.00099928013 0)
(1.1662784 0.0011577049 0)
(1.1659316 0.0013125084 0)
(1.1655405 0.0014635031 0)
(1.1651064 0.0016105006 0)
(1.1646302 0.0017533115 0)
(1.1641132 0.001891746 0)
(1.1635565 0.0020256148 0)
(1.1629615 0.0021547297 0)