/*--------------------------------*- C++ -*----------------------------------*\
| =========                 |                                                 |
| \\      /  F ield         | OpenFOAM: The Open Source CFD Toolbox           |
|  \\    /   O peration     | Version:  2506                                  |
|   \\  /    A nd           | Website:  www.openfoam.com                      |
|    \\/     M anipulation  |                                                 |
\*---------------------------------------------------------------------------*/
FoamFile
{
    version     2.0;
    format      ascii;
    arch        "LSB;label=32;scalar=64";
    class       volScalarField;
    location    "5000";
    object      nut;
}
// * * * * * * * * * * * * * * * * * * * * * * * * * * * * * * * * * * * * * //

dimensions      [0 2 -1 0 0 0 0];

internalField   nonuniform List<scalar> 
68056
(
0.00014735648
0.00014489329
0.00014279794
0.00014098375
0.0001393901
0.00013797325
0.00013670081
0.00013554819
0.00013449638
0.0001335304
0.00013263827
0.00013181027
0.00013103843
0.00013031614
0.00012963783
0.00012899881
0.0001283951
0.00012782324
0.00012728028
0.00012676362
0.00012627101
0.00012580046
0.00012535022
0.00012491873
0.00012450459
0.00012410657
0.00012372356
0.00012335455
0.00012299864
0.00012265501
0.00012232291
0.00012200167
0.00012169066
0.00012138932
0.00012109714
0.00012081364
0.00012053837
0.00012027094
0.00012001098
0.00011975813
0.00011951208
0.00011927253
0.00011903921
0.00011881185
0.00011859022
0.00011837408
0.00011816324
0.00011795748
0.00011775663
0.00011756051
0.00011736895
0.0001171818
0.00011699889
0.00011682011
0.0001166453
0.00011647434
0.0001163071
0.00011614348
0.00011598334
0.0001158266
0.00011567313
0.00011552284
0.00011537563
0.00011523141
0.00011509008
0.00011495156
0.00011481575
0.00011468257
0.00011455194
0.00011442378
0.00011429801
0.00011417454
0.00011405332
0.00011393426
0.00011381729
0.00011370233
0.00011358933
0.00011347822
0.00011336892
0.00011326138
0.00011315552
0.0001130513
0.00011294865
0.00011284752
0.00011274784
0.00011264956
0.00011255264
0.00011245701
0.00011236263
0.00011226944
0.00011217741
0.00011208649
0.00011199663
0.0001119078
0.00011181994
0.00011173303
0.00011164702
0.00011156188
0.00011147758
0.00011139408
0.00011131136
0.00011122938
0.00011114811
0.00011106753
0.00011098761
0.00011090832
0.00011082965
0.00011075157
0.00011067407
0.00011059711
0.00011052069
0.00011044479
0.00011036938
0.00011029446
0.00011022001
0.00011014602
0.00011007247
0.00010999936
0.00010992668
0.0001098544
0.00010978253
0.00010971106
0.00010963998
0.00010956928
0.00010949896
0.00010942901
0.00010935943
0.00010929021
0.00010922134
0.00010915283
0.00010908467
0.00010901686
0.00010894939
0.00010888225
0.00010881546
0.000108749
0.00010868286
0.00010861705
0.00010855157
0.0001084864
0.00010842153
0.00010835698
0.00010829272
0.00010822876
0.00010816508
0.00010810168
0.00010803855
0.00010797568
0.00010791305
0.00010785067
0.00010778851
0.00010772657
0.00010766483
0.00010760329
0.00010754193
0.00010748075
0.00010741972
0.00010735885
0.00010729812
0.00010723752
0.00010717705
0.00010711669
0.00010705646
0.00010699634
0.00010693633
0.00010687644
0.00010681668
0.00010675704
0.00010669754
0.00010663819
0.00010657901
0.00010652001
0.00010646121
0.00010640265
0.00010634434
0.00010628631
0.0001062286
0.00010617123
0.00010611425
0.00010605768
0.00010600156
0.00010594594
0.00010589085
0.00010583633
0.00010578241
0.00010572914
0.00010567656
0.0001056247
0.00010557358
0.00010552326
0.00010547375
0.00010542509
0.00010537729
0.00010533039
0.0001052844
0.00010523934
0.00010519522
0.00010515206
0.00010510986
0.00010506863
0.00010502838
0.0001049891
0.00010495079
0.00010491345
0.00010487708
0.00010484167
0.0001048072
0.00010477368
0.00010474109
0.00010470941
0.00010467864
0.00010464876
0.00010461975
0.0001045916
0.0001045643
0.00010453781
0.00010451213
0.00010448722
0.00010446307
0.00010443964
0.0001044169
0.00010439482
0.00010437337
0.00010435249
0.00010433215
0.0001043123
0.00010429287
0.00010427381
0.00010425506
0.00010423654
0.00010421817
0.00010419989
0.00010418159
0.0001041632
0.00010414462
0.00010412575
0.00010410649
0.00010408675
0.00010406642
0.0001040454
0.00010402359
0.00010400088
0.00010397719
0.00010395241
0.00010392647
0.00010389927
0.00010387076
0.00010384085
0.0001038095
0.00010377666
0.0001037423
0.00010370639
0.00010366893
0.00010362992
0.00010358937
0.00010354733
0.00010350382
0.00010345891
0.00010341268
0.00010336519
0.00010331656
0.00010326689
0.00010321629
0.00010316489
0.00010311282
0.00010306023
0.00010300725
0.00010295405
0.00010290076
0.00010284754
0.00010279453
0.00010274189
0.00010268976
0.00010263826
0.00010258753
0.00010253768
0.00010248882
0.00010244105
0.00010239445
0.00010234908
0.000102305
0.00010226226
0.00010222088
0.00010218087
0.00010214223
0.00010210494
0.00010206897
0.00010203429
0.00010200083
0.00010196853
0.00010193732
0.00010190712
0.00010187784
0.0001018494
0.00010182171
0.00010179466
0.0001017682
0.00010174225
0.00010171751
0.00010169549
0.00014735648
0.00014489329
0.00014279793
0.00014098374
0.00013939008
0.00013797324
0.00013670079
0.00013554817
0.00013449636
0.00013353038
0.00013263824
0.00013181025
0.00013103841
0.0001303161
0.00012963779
0.00012899877
0.00012839505
0.00012782318
0.00012728021
0.00012676354
0.00012627092
0.00012580036
0.0001253501
0.00012491859
0.00012450444
0.00012410641
0.00012372338
0.00012335435
0.00012299843
0.00012265478
0.00012232266
0.0001220014
0.00012169038
0.00012138903
0.00012109684
0.00012081332
0.00012053805
0.00012027062
0.00012001065
0.00011975779
0.00011951174
0.0001192722
0.00011903888
0.00011881152
0.0001185899
0.00011837377
0.00011816294
0.0001179572
0.00011775637
0.00011756026
0.00011736872
0.00011718159
0.00011699871
0.00011681995
0.00011664517
0.00011647424
0.00011630704
0.00011614344
0.00011598334
0.00011582663
0.0001156732
0.00011552295
0.00011537579
0.0001152316
0.00011509032
0.00011495183
0.00011481607
0.00011468294
0.00011455235
0.00011442424
0.00011429851
0.0001141751
0.00011405393
0.00011393491
0.00011381799
0.00011370309
0.00011359014
0.00011347908
0.00011336983
0.00011326234
0.00011315654
0.00011305238
0.00011294978
0.00011284869
0.00011274907
0.00011265084
0.00011255396
0.00011245838
0.00011236405
0.00011227091
0.00011217893
0.00011208805
0.00011199823
0.00011190944
0.00011182162
0.00011173475
0.00011164877
0.00011156367
0.0001114794
0.00011139593
0.00011131323
0.00011123128
0.00011115003
0.00011106947
0.00011098956
0.0001109103
0.00011083164
0.00011075357
0.00011067607
0.00011059912
0.0001105227
0.00011044679
0.00011037138
0.00011029646
0.000110222
0.000110148
0.00011007444
0.00011000131
0.00010992861
0.00010985631
0.00010978442
0.00010971293
0.00010964182
0.00010957109
0.00010950074
0.00010943076
0.00010936114
0.00010929188
0.00010922298
0.00010915443
0.00010908623
0.00010901838
0.00010895087
0.00010888369
0.00010881686
0.00010875035
0.00010868417
0.00010861832
0.00010855279
0.00010848757
0.00010842267
0.00010835807
0.00010829377
0.00010822977
0.00010816605
0.0001081026
0.00010803943
0.00010797652
0.00010791385
0.00010785143
0.00010778923
0.00010772725
0.00010766548
0.0001076039
0.00010754251
0.00010748129
0.00010742023
0.00010735932
0.00010729856
0.00010723793
0.00010717742
0.00010711704
0.00010705678
0.00010699663
0.0001069366
0.00010687668
0.00010681689
0.00010675723
0.00010669771
0.00010663835
0.00010657915
0.00010652014
0.00010646134
0.00010640277
0.00010634446
0.00010628643
0.00010622873
0.00010617137
0.0001061144
0.00010605786
0.00010600177
0.00010594618
0.00010589113
0.00010583666
0.0001057828
0.0001057296
0.00010567708
0.00010562529
0.00010557426
0.00010552403
0.00010547462
0.00010542606
0.00010537837
0.00010533159
0.00010528572
0.0001052408
0.00010519682
0.0001051538
0.00010511175
0.00010507067
0.00010503057
0.00010499145
0.00010495331
0.00010491614
0.00010487994
0.0001048447
0.00010481041
0.00010477706
0.00010474464
0.00010471314
0.00010468254
0.00010465283
0.000104624
0.00010459602
0.00010456889
0.00010454257
0.00010451705
0.00010449231
0.00010446832
0.00010444504
0.00010442246
0.00010440054
0.00010437923
0.0001043585
0.00010433829
0.00010431857
0.00010429926
0.00010428032
0.00010426168
0.00010424326
0.00010422499
0.00010420679
0.00010418857
0.00010417024
0.00010415171
0.00010413287
0.00010411365
0.00010409391
0.00010407358
0.00010405254
0.00010403069
0.00010400793
0.00010398417
0.0001039593
0.00010393325
0.00010390593
0.00010387727
0.00010384721
0.00010381568
0.00010378265
0.00010374808
0.00010371194
0.00010367424
0.00010363497
0.00010359416
0.00010355184
0.00010350804
0.00010346284
0.00010341631
0.00010336853
0.00010331959
0.00010326962
0.00010321872
0.00010316703
0.00010311468
0.00010306181
0.00010300858
0.00010295512
0.00010290161
0.00010284818
0.00010279499
0.00010274218
0.00010268991
0.0001026383
0.00010258748
0.00010253758
0.0001024887
0.00010244094
0.00010239438
0.00010234909
0.00010230512
0.00010226253
0.00010222133
0.00010218154
0.00010214314
0.00010210614
0.00010207049
0.00010203615
0.00010200307
0.00010197118
0.00010194041
0.00010191067
0.00010188189
0.00010185397
0.00010182682
0.00010180034
0.00010177446
0.00010174913
0.00010172498
0.00010170343
0.00014735648
0.00014489329
0.00014279793
0.00014098373
0.00013939008
0.00013797323
0.00013670078
0.00013554816
0.00013449635
0.00013353036
0.00013263823
0.00013181023
0.00013103839
0.00013031608
0.00012963777
0.00012899874
0.00012839502
0.00012782315
0.00012728017
0.0001267635
0.00012627088
0.00012580031
0.00012535004
0.00012491853
0.00012450437
0.00012410633
0.00012372329
0.00012335426
0.00012299832
0.00012265467
0.00012232254
0.00012200127
0.00012169024
0.00012138889
0.00012109669
0.00012081317
0.00012053789
0.00012027045
0.00012001047
0.00011975762
0.00011951157
0.00011927202
0.0001190387
0.00011881135
0.00011858973
0.00011837361
0.00011816278
0.00011795705
0.00011775622
0.00011756013
0.0001173686
0.00011718147
0.00011699861
0.00011681986
0.0001166451
0.00011647418
0.000116307
0.00011614342
0.00011598335
0.00011582666
0.00011567326
0.00011552303
0.00011537589
0.00011523174
0.00011509048
0.00011495203
0.0001148163
0.0001146832
0.00011455266
0.00011442458
0.0001142989
0.00011417553
0.0001140544
0.00011393543
0.00011381856
0.00011370371
0.00011359081
0.0001134798
0.0001133706
0.00011326317
0.00011315742
0.00011305331
0.00011295077
0.00011284975
0.00011275018
0.00011265202
0.0001125552
0.00011245969
0.00011236542
0.00011227235
0.00011218043
0.00011208962
0.00011199987
0.00011191114
0.00011182339
0.00011173658
0.00011165067
0.00011156564
0.00011148143
0.00011139803
0.0001113154
0.00011123351
0.00011115233
0.00011107183
0.00011099199
0.00011091279
0.0001108342
0.00011075619
0.00011067875
0.00011060186
0.00011052551
0.00011044966
0.00011037431
0.00011029944
0.00011022504
0.00011015109
0.00011007759
0.00011000451
0.00010993186
0.00010985962
0.00010978777
0.00010971632
0.00010964526
0.00010957457
0.00010950426
0.00010943432
0.00010936474
0.00010929552
0.00010922665
0.00010915813
0.00010908996
0.00010902213
0.00010895464
0.00010888749
0.00010882067
0.00010875419
0.00010868803
0.00010862219
0.00010855667
0.00010849147
0.00010842658
0.000108362
0.00010829771
0.00010823371
0.00010817
0.00010810657
0.00010804341
0.0001079805
0.00010791785
0.00010785543
0.00010779325
0.00010773128
0.00010766952
0.00010760796
0.00010754658
0.00010748537
0.00010742432
0.00010736343
0.00010730268
0.00010724206
0.00010718156
0.00010712119
0.00010706093
0.00010700079
0.00010694076
0.00010688084
0.00010682104
0.00010676137
0.00010670183
0.00010664244
0.00010658322
0.00010652417
0.00010646532
0.0001064067
0.00010634833
0.00010629024
0.00010623245
0.00010617501
0.00010611795
0.00010606131
0.00010600511
0.00010594941
0.00010589424
0.00010583964
0.00010578566
0.00010573232
0.00010567967
0.00010562775
0.00010557658
0.00010552622
0.00010547668
0.00010542799
0.00010538019
0.0001053333
0.00010528733
0.00010524231
0.00010519825
0.00010515517
0.00010511306
0.00010507195
0.00010503183
0.0001049927
0.00010495457
0.00010491742
0.00010488126
0.00010484607
0.00010481185
0.00010477858
0.00010474626
0.00010471487
0.00010468439
0.00010465482
0.00010462612
0.00010459829
0.00010457131
0.00010454515
0.00010451979
0.00010449521
0.00010447137
0.00010444826
0.00010442584
0.00010440408
0.00010438293
0.00010436235
0.0001043423
0.00010432273
0.00010430358
0.00010428479
0.0001042663
0.00010424804
0.00010422992
0.00010421188
0.00010419382
0.00010417566
0.0001041573
0.00010413866
0.00010411962
0.00010410009
0.00010407997
0.00010405916
0.00010403755
0.00010401504
0.00010399154
0.00010396695
0.00010394118
0.00010391416
0.0001038858
0.00010385605
0.00010382483
0.00010379211
0.00010375785
0.00010372202
0.00010368462
0.00010364564
0.0001036051
0.00010356303
0.00010351947
0.00010347448
0.00010342812
0.00010338048
0.00010333166
0.00010328176
0.00010323089
0.00010317919
0.00010312678
0.00010307382
0.00010302044
0.0001029668
0.00010291305
0.00010285935
0.00010280585
0.0001027527
0.00010270005
0.00010264803
0.0001025968
0.00010254646
0.00010249714
0.00010244894
0.00010240195
0.00010235624
0.00010231189
0.00010226894
0.00010222743
0.00010218737
0.00010214878
0.00010211164
0.00010207593
0.00010204161
0.00010200864
0.00010197696
0.00010194651
0.00010191719
0.00010188894
0.00010186165
0.00010183525
0.00010180964
0.00010178475
0.00010176049
0.00010173752
0.000101717
0.00014735648
0.00014489329
0.00014279793
0.00014098373
0.00013939008
0.00013797323
0.00013670078
0.00013554816
0.00013449634
0.00013353036
0.00013263822
0.00013181022
0.00013103838
0.00013031607
0.00012963775
0.00012899873
0.000128395
0.00012782313
0.00012728015
0.00012676347
0.00012627084
0.00012580027
0.00012535
0.00012491848
0.00012450432
0.00012410627
0.00012372323
0.00012335419
0.00012299825
0.00012265459
0.00012232245
0.00012200118
0.00012169014
0.00012138878
0.00012109657
0.00012081305
0.00012053776
0.00012027032
0.00012001034
0.00011975748
0.00011951142
0.00011927187
0.00011903855
0.0001188112
0.00011858957
0.00011837345
0.00011816263
0.0001179569
0.00011775607
0.00011755998
0.00011736846
0.00011718134
0.00011699849
0.00011681975
0.000116645
0.0001164741
0.00011630693
0.00011614337
0.00011598331
0.00011582665
0.00011567326
0.00011552306
0.00011537595
0.00011523183
0.0001150906
0.00011495219
0.00011481649
0.00011468343
0.00011455293
0.0001144249
0.00011429926
0.00011417594
0.00011405486
0.00011393594
0.00011381913
0.00011370433
0.0001135915
0.00011348055
0.00011337142
0.00011326405
0.00011315838
0.00011305434
0.00011295188
0.00011285093
0.00011275145
0.00011265337
0.00011255664
0.00011246121
0.00011236703
0.00011227404
0.00011218222
0.0001120915
0.00011200184
0.00011191321
0.00011182556
0.00011173885
0.00011165304
0.00011156811
0.00011148401
0.00011140071
0.00011131819
0.0001112364
0.00011115533
0.00011107494
0.00011099521
0.00011091612
0.00011083763
0.00011075974
0.00011068241
0.00011060563
0.00011052939
0.00011045365
0.00011037841
0.00011030366
0.00011022936
0.00011015553
0.00011008213
0.00011000917
0.00010993662
0.00010986448
0.00010979274
0.0001097214
0.00010965043
0.00010957985
0.00010950964
0.00010943979
0.0001093703
0.00010930117
0.00010923239
0.00010916396
0.00010909587
0.00010902812
0.00010896071
0.00010889363
0.00010882688
0.00010876046
0.00010869437
0.00010862859
0.00010856313
0.00010849798
0.00010843314
0.0001083686
0.00010830436
0.00010824041
0.00010817674
0.00010811334
0.00010805021
0.00010798734
0.00010792471
0.00010786233
0.00010780017
0.00010773823
0.00010767649
0.00010761494
0.00010755358
0.00010749239
0.00010743136
0.00010737047
0.00010730973
0.00010724911
0.00010718862
0.00010712824
0.00010706798
0.00010700782
0.00010694777
0.00010688783
0.000106828
0.00010676828
0.0001067087
0.00010664925
0.00010658995
0.00010653082
0.00010647189
0.00010641316
0.00010635467
0.00010629645
0.00010623853
0.00010618094
0.00010612371
0.00010606689
0.0001060105
0.0001059546
0.00010589922
0.0001058444
0.00010579018
0.0001057366
0.00010568371
0.00010563154
0.00010558013
0.00010552951
0.00010547973
0.0001054308
0.00010538276
0.00010533564
0.00010528946
0.00010524423
0.00010519998
0.00010515672
0.00010511446
0.00010507322
0.00010503298
0.00010499376
0.00010495556
0.00010491837
0.00010488219
0.000104847
0.00010481281
0.0001047796
0.00010474736
0.00010471606
0.00010468571
0.00010465627
0.00010462774
0.00010460008
0.00010457329
0.00010454733
0.00010452219
0.00010449783
0.00010447424
0.00010445137
0.00010442919
0.00010440768
0.00010438678
0.00010436646
0.00010434667
0.00010432736
0.00010430847
0.00010428994
0.00010427172
0.00010425372
0.00010423588
0.00010421811
0.00010420034
0.00010418248
0.00010416443
0.00010414611
0.00010412741
0.00010410823
0.00010408848
0.00010406805
0.00010404685
0.00010402476
0.00010400171
0.00010397758
0.0001039523
0.00010392578
0.00010389795
0.00010386872
0.00010383806
0.0001038059
0.0001037722
0.00010373694
0.0001037001
0.00010366168
0.00010362169
0.00010358016
0.00010353711
0.0001034926
0.0001034467
0.00010339948
0.00010335104
0.00010330146
0.00010325088
0.0001031994
0.00010314717
0.00010309432
0.00010304099
0.00010298734
0.00010293352
0.00010287969
0.000102826
0.0001027726
0.00010271966
0.00010266731
0.0001026157
0.00010256496
0.00010251522
0.00010246658
0.00010241916
0.00010237303
0.00010232828
0.00010228497
0.00010224314
0.00010220283
0.00010216405
0.00010212681
0.0001020911
0.00010205689
0.00010202416
0.00010199284
0.00010196288
0.00010193421
0.00010190676
0.00010188045
0.00010185517
0.00010183086
0.00010180743
0.00010178479
0.00010176356
0.00010174459
0.00014735648
0.00014489329
0.00014279793
0.00014098373
0.00013939008
0.00013797323
0.00013670078
0.00013554816
0.00013449634
0.00013353035
0.00013263821
0.00013181021
0.00013103836
0.00013031606
0.00012963773
0.00012899871
0.00012839497
0.0001278231
0.00012728012
0.00012676344
0.0001262708
0.00012580023
0.00012534996
0.00012491843
0.00012450426
0.00012410621
0.00012372316
0.00012335412
0.00012299817
0.0001226545
0.00012232236
0.00012200108
0.00012169004
0.00012138867
0.00012109645
0.00012081292
0.00012053763
0.00012027017
0.00012001019
0.00011975733
0.00011951126
0.00011927171
0.00011903838
0.00011881102
0.0001185894
0.00011837328
0.00011816245
0.00011795673
0.00011775591
0.00011755982
0.0001173683
0.0001171812
0.00011699835
0.00011681963
0.00011664489
0.000116474
0.00011630685
0.00011614332
0.00011598328
0.00011582664
0.00011567329
0.00011552312
0.00011537604
0.00011523196
0.00011509077
0.0001149524
0.00011481675
0.00011468374
0.00011455329
0.00011442532
0.00011429974
0.00011417648
0.00011405547
0.00011393663
0.00011381988
0.00011370517
0.00011359241
0.00011348154
0.0001133725
0.00011326523
0.00011315965
0.00011305571
0.00011295334
0.0001128525
0.00011275311
0.00011265514
0.00011255852
0.0001124632
0.00011236914
0.00011227628
0.00011218457
0.00011209397
0.00011200444
0.00011191593
0.00011182841
0.00011174183
0.00011165616
0.00011157136
0.0001114874
0.00011140424
0.00011132185
0.00011124021
0.00011115928
0.00011107904
0.00011099945
0.0001109205
0.00011084217
0.00011076442
0.00011068725
0.00011061062
0.00011053452
0.00011045894
0.00011038385
0.00011030925
0.00011023511
0.00011016143
0.00011008819
0.00011001537
0.00010994298
0.00010987099
0.0001097994
0.00010972821
0.00010965739
0.00010958695
0.00010951688
0.00010944717
0.00010937782
0.00010930883
0.00010924018
0.00010917187
0.00010910391
0.00010903628
0.00010896899
0.00010890202
0.00010883538
0.00010876906
0.00010870306
0.00010863738
0.00010857201
0.00010850694
0.00010844218
0.00010837771
0.00010831353
0.00010824964
0.00010818603
0.00010812268
0.00010805959
0.00010799676
0.00010793417
0.00010787181
0.00010780968
0.00010774776
0.00010768603
0.0001076245
0.00010756314
0.00010750194
0.00010744091
0.00010738001
0.00010731925
0.00010725861
0.00010719809
0.00010713767
0.00010707736
0.00010701715
0.00010695704
0.00010689703
0.00010683712
0.00010677732
0.00010671764
0.00010665808
0.00010659866
0.0001065394
0.00010648032
0.00010642144
0.00010636278
0.00010630438
0.00010624626
0.00010618846
0.00010613101
0.00010607395
0.00010601731
0.00010596115
0.0001059055
0.0001058504
0.0001057959
0.00010574203
0.00010568884
0.00010563637
0.00010558465
0.00010553374
0.00010548365
0.00010543443
0.00010538611
0.00010533872
0.00010529227
0.00010524681
0.00010520233
0.00010515887
0.00010511642
0.00010507502
0.00010503465
0.00010499532
0.00010495705
0.00010491981
0.00010488361
0.00010484845
0.0001048143
0.00010478117
0.00010474903
0.00010471788
0.00010468769
0.00010465846
0.00010463014
0.00010460274
0.00010457622
0.00010455056
0.00010452573
0.0001045017
0.00010447845
0.00010445594
0.00010443413
0.000104413
0.00010439249
0.00010437257
0.00010435318
0.00010433427
0.00010431579
0.00010429768
0.00010427987
0.0001042623
0.00010424488
0.00010422755
0.00010421022
0.0001041928
0.00010417521
0.00010415735
0.00010413912
0.00010412044
0.00010410119
0.00010408128
0.00010406061
0.00010403908
0.0001040166
0.00010399306
0.00010396839
0.0001039425
0.00010391531
0.00010388674
0.00010385675
0.00010382527
0.00010379227
0.00010375771
0.00010372157
0.00010368385
0.00010364456
0.0001036037
0.00010356132
0.00010351747
0.00010347219
0.00010342556
0.00010337768
0.00010332863
0.00010327852
0.00010322748
0.00010317562
0.0001031231
0.00010307005
0.00010301662
0.00010296297
0.00010290925
0.00010285562
0.00010280224
0.00010274927
0.00010269686
0.00010264516
0.00010259431
0.00010254444
0.00010249569
0.00010244815
0.00010240194
0.00010235714
0.00010231382
0.00010227205
0.00010223188
0.00010219333
0.00010215643
0.00010212117
0.00010208756
0.00010205555
0.00010202513
0.00010199623
0.00010196881
0.00010194279
0.0001019181
0.00010189466
0.00010187238
0.00010185119
0.00010183098
0.00010181232
0.00010179563
0.00014735648
0.00014489329
0.00014279793
0.00014098374
0.00013939008
0.00013797323
0.00013670078
0.00013554815
0.00013449634
0.00013353035
0.00013263821
0.0001318102
0.00013103835
0.00013031604
0.00012963772
0.00012899868
0.00012839495
0.00012782307
0.00012728008
0.0001267634
0.00012627076
0.00012580018
0.0001253499
0.00012491837
0.00012450419
0.00012410613
0.00012372308
0.00012335402
0.00012299807
0.00012265439
0.00012232224
0.00012200095
0.0001216899
0.00012138853
0.0001210963
0.00012081276
0.00012053746
0.00012027001
0.00012001001
0.00011975714
0.00011951108
0.00011927152
0.00011903819
0.00011881083
0.00011858921
0.00011837309
0.00011816227
0.00011795654
0.00011775573
0.00011755965
0.00011736815
0.00011718105
0.00011699823
0.00011681952
0.0001166448
0.00011647394
0.00011630682
0.00011614331
0.00011598331
0.00011582671
0.0001156734
0.00011552327
0.00011537624
0.00011523221
0.00011509108
0.00011495277
0.00011481718
0.00011468424
0.00011455386
0.00011442596
0.00011430046
0.00011417729
0.00011405637
0.00011393762
0.00011382097
0.00011370635
0.0001135937
0.00011348294
0.00011337401
0.00011326685
0.00011316139
0.00011305757
0.00011295533
0.00011285462
0.00011275537
0.00011265753
0.00011256104
0.00011246587
0.00011237195
0.00011227923
0.00011218767
0.00011209723
0.00011200785
0.0001119195
0.00011183213
0.00011174571
0.00011166021
0.00011157557
0.00011149177
0.00011140878
0.00011132657
0.0001112451
0.00011116434
0.00011108427
0.00011100486
0.00011092609
0.00011084794
0.00011077037
0.00011069338
0.00011061694
0.00011054103
0.00011046563
0.00011039073
0.00011031631
0.00011024236
0.00011016887
0.00011009581
0.00011002319
0.00010995098
0.00010987918
0.00010980778
0.00010973676
0.00010966613
0.00010959587
0.00010952598
0.00010945645
0.00010938727
0.00010931845
0.00010924996
0.00010918182
0.00010911402
0.00010904654
0.0001089794
0.00010891257
0.00010884607
0.00010877989
0.00010871401
0.00010864845
0.00010858319
0.00010851822
0.00010845356
0.00010838918
0.00010832508
0.00010826127
0.00010819772
0.00010813443
0.00010807139
0.0001080086
0.00010794605
0.00010788371
0.0001078216
0.00010775968
0.00010769796
0.00010763642
0.00010757504
0.00010751383
0.00010745275
0.00010739182
0.000107331
0.00010727031
0.00010720971
0.00010714922
0.00010708883
0.00010702852
0.0001069683
0.00010690817
0.00010684813
0.00010678819
0.00010672836
0.00010666864
0.00010660904
0.0001065496
0.00010649031
0.00010643122
0.00010637234
0.0001063137
0.00010625533
0.00010619726
0.00010613954
0.0001060822
0.00010602527
0.00010596881
0.00010591285
0.00010585743
0.0001058026
0.00010574841
0.0001056949
0.0001056421
0.00010559006
0.00010553883
0.00010548843
0.00010543891
0.0001053903
0.00010534263
0.00010529593
0.00010525023
0.00010520554
0.00010516188
0.00010511928
0.00010507774
0.00010503727
0.00010499787
0.00010495956
0.00010492233
0.00010488617
0.00010485108
0.00010481705
0.00010478407
0.00010475213
0.0001047212
0.00010469128
0.00010466235
0.00010463437
0.00010460733
0.00010458121
0.00010455598
0.0001045316
0.00010450805
0.0001044853
0.00010446331
0.00010444205
0.00010442146
0.00010440152
0.00010438217
0.00010436337
0.00010434506
0.00010432718
0.00010430967
0.00010429248
0.00010427551
0.00010425872
0.00010424201
0.0001042253
0.00010420851
0.00010419155
0.00010417433
0.00010415674
0.00010413871
0.00010412012
0.00010410088
0.00010408088
0.00010406004
0.00010403826
0.00010401544
0.00010399149
0.00010396634
0.00010393989
0.00010391209
0.00010388287
0.00010385218
0.00010381997
0.0001037862
0.00010375087
0.00010371395
0.00010367546
0.0001036354
0.00010359381
0.00010355072
0.00010350621
0.00010346033
0.00010341316
0.00010336481
0.00010331538
0.00010326497
0.00010321373
0.00010316178
0.00010310928
0.00010305636
0.00010300318
0.0001029499
0.00010289669
0.0001028437
0.0001027911
0.00010273906
0.00010268773
0.00010263725
0.00010258778
0.00010253944
0.00010249237
0.00010244667
0.00010240245
0.00010235979
0.00010231879
0.00010227948
0.00010224193
0.00010220616
0.0001021722
0.00010214004
0.00010210969
0.0001020811
0.00010205426
0.0001020291
0.00010200558
0.00010198363
0.00010196316
0.0001019441
0.00010192638
0.00010190987
0.00010189505
0.00010188173
0.00014735648
0.00014489329
0.00014279793
0.00014098374
0.00013939008
0.00013797323
0.00013670078
0.00013554815
0.00013449633
0.00013353034
0.0001326382
0.00013181019
0.00013103834
0.00013031602
0.00012963769
0.00012899866
0.00012839492
0.00012782303
0.00012728004
0.00012676335
0.0001262707
0.00012580011
0.00012534983
0.00012491829
0.0001245041
0.00012410604
0.00012372297
0.00012335391
0.00012299795
0.00012265426
0.0001223221
0.0001220008
0.00012168974
0.00012138836
0.00012109613
0.00012081258
0.00012053727
0.00012026981
0.00012000981
0.00011975694
0.00011951087
0.00011927131
0.00011903798
0.00011881062
0.000118589
0.00011837288
0.00011816207
0.00011795636
0.00011775556
0.00011755949
0.00011736801
0.00011718093
0.00011699813
0.00011681945
0.00011664476
0.00011647394
0.00011630685
0.00011614339
0.00011598344
0.00011582688
0.00011567363
0.00011552356
0.0001153766
0.00011523263
0.00011509158
0.00011495334
0.00011481784
0.00011468499
0.0001145547
0.0001144269
0.00011430151
0.00011417844
0.00011405763
0.000113939
0.00011382247
0.00011370798
0.00011359546
0.00011348483
0.00011337604
0.00011326902
0.00011316371
0.00011306004
0.00011295795
0.00011285739
0.0001127583
0.00011266063
0.00011256431
0.0001124693
0.00011237555
0.00011228301
0.00011219163
0.00011210136
0.00011201217
0.000111924
0.00011183682
0.00011175059
0.00011166527
0.00011158083
0.00011149723
0.00011141443
0.00011133242
0.00011125114
0.00011117059
0.00011109072
0.00011101152
0.00011093296
0.00011085501
0.00011077766
0.00011070087
0.00011062464
0.00011054895
0.00011047376
0.00011039908
0.00011032488
0.00011025115
0.00011017787
0.00011010504
0.00011003263
0.00010996064
0.00010988906
0.00010981787
0.00010974707
0.00010967665
0.00010960661
0.00010953693
0.0001094676
0.00010939863
0.00010933
0.00010926172
0.00010919377
0.00010912615
0.00010905886
0.00010899189
0.00010892524
0.0001088589
0.00010879287
0.00010872715
0.00010866172
0.0001085966
0.00010853176
0.00010846721
0.00010840294
0.00010833894
0.0001082752
0.00010821173
0.00010814851
0.00010808553
0.00010802278
0.00010796026
0.00010789795
0.00010783585
0.00010777393
0.0001077122
0.00010765063
0.00010758922
0.00010752796
0.00010746683
0.00010740582
0.00010734493
0.00010728413
0.00010722344
0.00010716283
0.0001071023
0.00010704185
0.00010698148
0.00010692118
0.00010686096
0.00010680083
0.00010674079
0.00010668085
0.00010662103
0.00010656134
0.0001065018
0.00010644244
0.00010638328
0.00010632435
0.00010626568
0.00010620731
0.00010614927
0.0001060916
0.00010603434
0.00010597754
0.00010592124
0.00010586548
0.0001058103
0.00010575577
0.00010570191
0.00010564878
0.00010559641
0.00010554486
0.00010549416
0.00010544435
0.00010539546
0.00010534754
0.00010530061
0.00010525471
0.00010520984
0.00010516605
0.00010512334
0.00010508172
0.00010504122
0.00010500184
0.00010496357
0.00010492643
0.00010489041
0.00010485551
0.00010482171
0.00010478901
0.00010475739
0.00010472683
0.00010469732
0.00010466884
0.00010464137
0.00010461487
0.00010458933
0.00010456471
0.00010454099
0.00010451813
0.00010449609
0.00010447484
0.00010445433
0.00010443454
0.0001044154
0.00010439687
0.0001043789
0.00010436143
0.0001043444
0.00010432775
0.00010431141
0.00010429532
0.00010427939
0.00010426354
0.0001042477
0.00010423178
0.00010421569
0.00010419933
0.00010418262
0.00010416545
0.00010414772
0.00010412935
0.00010411023
0.00010409026
0.00010406935
0.00010404741
0.00010402436
0.00010400009
0.00010397455
0.00010394765
0.00010391934
0.00010388957
0.00010385828
0.00010382545
0.00010379105
0.00010375507
0.00010371752
0.0001036784
0.00010363776
0.00010359562
0.00010355204
0.0001035071
0.00010346086
0.00010341343
0.00010336491
0.00010331542
0.00010326508
0.00010321402
0.0001031624
0.00010311037
0.00010305807
0.00010300568
0.00010295335
0.00010290127
0.0001028496
0.00010279851
0.00010274817
0.00010269875
0.0001026504
0.00010260326
0.00010255747
0.00010251316
0.00010247045
0.00010242944
0.00010239022
0.00010235287
0.00010231746
0.00010228403
0.00010225262
0.00010222325
0.00010219592
0.00010217062
0.00010214732
0.000102126
0.0001021066
0.00010208906
0.00010207332