/*--------------------------------*- C++ -*----------------------------------*\
| =========                 |                                                 |
| \\      /  F ield         | OpenFOAM: The Open Source CFD Toolbox           |
|  \\    /   O peration     | Version:  2506                                  |
|   \\  /    A nd           | Website:  www.openfoam.com                      |
|    \\/     M anipulation  |                                                 |
\*---------------------------------------------------------------------------*/
FoamFile
{
    version     2.0;
    format      ascii;
    arch        "LSB;label=32;scalar=64";
    class       volScalarField;
    location    "5000";
    object      omega;
}
// * * * * * * * * * * * * * * * * * * * * * * * * * * * * * * * * * * * * * //

dimensions      [0 0 -1 0 0 0 0];

internalField   nonuniform List<scalar> 
68056
(
79.263618
63.543977
52.670724
44.771349
38.809165
34.170025
30.469789
27.457249
24.961932
22.864471
21.079014
19.54237
18.20708
17.036857
16.003517
15.084862
14.263183
13.524195
12.856251
12.249769
11.696794
11.190674
10.725803
10.297426
9.9014828
9.5344902
9.1934404
8.8757247
8.5790697
8.3014852
8.041222
7.7967367
7.5666623
7.3497841
7.145019
6.9513983
6.7680532
6.594202
6.42914
6.2722298
6.1228937
5.980607
5.844892
5.7153126
5.5914705
5.4730005
5.3595678
5.2508644
5.1466068
5.0465332
4.9504021
4.8579898
4.7690891
4.6835077
4.6010669
4.5216004
4.4449532
4.3709808
4.2995481
4.2305289
4.163805
4.0992657
4.0368069
3.9763311
3.9177464
3.8609666
3.8059102
3.7525007
3.7006656
3.6503367
3.6014493
3.5539424
3.5077582
3.4628419
3.4191417
3.3766084
3.3351952
3.2948578
3.255554
3.2172438
3.1798891
3.1434535
3.1079027
3.0732037
3.0393251
3.0062371
2.9739111
2.94232
2.9114379
2.8812399
2.8517023
2.8228026
2.7945192
2.7668312
2.739719
2.7131637
2.687147
2.6616517
2.6366611
2.6121593
2.5881311
2.5645618
2.5414374
2.5187444
2.4964699
2.4746016
2.4531275
2.4320362
2.4113166
2.3909583
2.3709511
2.3512852
2.3319512
2.3129401
2.2942432
2.2758521
2.2577587
2.2399552
2.2224341
2.2051883
2.1882106
2.1714945
2.1550333
2.1388208
2.122851
2.107118
2.0916161
2.0763398
2.0612839
2.0464432
2.0318128
2.0173879
2.0031637
1.9891359
1.9752999
1.9616517
1.9481871
1.9349021
1.9217928
1.9088556
1.8960867
1.8834827
1.8710401
1.8587557
1.8466261
1.8346484
1.8228194
1.8111362
1.7995959
1.7881959
1.7769334
1.7658058
1.7548105
1.7439452
1.7332075
1.722595
1.7121055
1.7017368
1.6914869
1.6813536
1.671335
1.6614291
1.6516341
1.6419481
1.6323693
1.622896
1.6135264
1.604259
1.595092
1.5860239
1.5770531
1.5681781
1.5593974
1.5507095
1.5421129
1.5336062
1.525188
1.5168569
1.5086115
1.5004504
1.4923724
1.484376
1.4764601
1.4686231
1.460864
1.4531815
1.4455743
1.4380411
1.4305809
1.4231923
1.4158743
1.4086257
1.4014455
1.3943324
1.3872855
1.3803038
1.3733861
1.3665316
1.3597392
1.3530081
1.3463373
1.339726
1.3331733
1.3266784
1.3202405
1.3138589
1.3075327
1.3012614
1.2950441
1.2888803
1.2827693
1.2767104
1.270703
1.2647466
1.2588405
1.2529842
1.2471772
1.2414189
1.2357089
1.2300465
1.2244313
1.2188628
1.2133406
1.2078642
1.2024331
1.1970469
1.1917051
1.1864074
1.1811534
1.1759426
1.1707746
1.1656491
1.1605657
1.1555241
1.1505238
1.1455647
1.1406463
1.1357683
1.1309305
1.1261325
1.121374
1.1166548
1.1119745
1.107333
1.1027298
1.0981648
1.0936377
1.0891481
1.0846959
1.0802807
1.0759023
1.0715602
1.0672544
1.0629843
1.0587498
1.0545505
1.0503859
1.0462558
1.0421598
1.0380975
1.0340684
1.0300723
1.0261086
1.0221769
1.0182767
1.0144076
1.0105691
1.0067608
1.0029821
0.99923255
0.99551165
0.99181889
0.98815378
0.98451583
0.98090453
0.97731941
0.97375998
0.97022579
0.96671637
0.96323129
0.95977012
0.95633246
0.95291791
0.94952611
0.9461567
0.94280936
0.93948377
0.93617966
0.93289677
0.92963484
0.92639367
0.92317305
0.91997281
0.91679279
0.91363289
0.91049316
0.90737486
0.90428557
0.90127968
0.89868757
79.263617
63.543963
52.670698
44.771313
38.809123
34.169979
30.469741
27.4572
24.961883
22.864422
21.078966
19.542324
18.207035
17.036813
16.003474
15.08482
14.263143
13.524156
12.856213
12.249732
11.696759
11.19064
10.72577
10.297393
9.9014514
9.5344597
9.1934107
8.8756959
8.5790416
8.3014577
8.0411952
7.7967104
7.5666365
7.3497588
7.1449941
6.9513738
6.768029
6.5941781
6.4291164
6.2722065
6.1228706
5.9805842
5.8448693
5.7152902
5.5914483
5.4729787
5.3595463
5.2508432
5.1465859
5.0465128
4.9503821
4.8579704
4.7690703
4.6834895
4.6010494
4.5215837
4.4449373
4.3709658
4.2995341
4.230516
4.1637932
4.0992551
4.0367975
3.976323
3.9177397
3.8609614
3.8059065
3.7524985
3.7006651
3.6503378
3.6014521
3.5539469
3.5077645
3.46285
3.4191517
3.3766202
3.3352089
3.2948734
3.2555715
3.2172632
3.1799104
3.1434769
3.107928
3.0732309
3.0393542
3.0062681
2.9739441
2.9423549
2.9114747
2.8812785
2.8517429
2.822845
2.7945634
2.7668772
2.7397668
2.7132132
2.6871983
2.6617047
2.6367158
2.6122157
2.5881891
2.5646214
2.5414985
2.5188071
2.4965341
2.4746672
2.4531946
2.4321046
2.4113865
2.3910295
2.3710236
2.3513589
2.3320261
2.3130162
2.2943204
2.2759304
2.257838
2.2400355
2.2225154
2.2052705
2.1882937
2.1715784
2.155118
2.1389063
2.1229372
2.1072048
2.0917035
2.0764279
2.0613725
2.0465323
2.0319024
2.0174778
2.003254
1.9892265
1.9753909
1.9617429
1.9482785
1.9349937
1.9218846
1.9089474
1.8961786
1.8835746
1.871132
1.8588475
1.8467179
1.83474
1.8229109
1.8112275
1.7996871
1.7882868
1.777024
1.765896
1.7549005
1.7440348
1.7332966
1.7226837
1.7121937
1.7018245
1.691574
1.6814402
1.671421
1.6615145
1.6517188
1.6420321
1.6324526
1.6229785
1.6136081
1.6043398
1.595172
1.586103
1.5771313
1.5682553
1.5594736
1.5507846
1.5421869
1.5336791
1.5252598
1.5169275
1.5086809
1.5005186
1.4924393
1.4844416
1.4765243
1.4686861
1.4609257
1.4532418
1.4456332
1.4380986
1.430637
1.4232471
1.4159277
1.4086778
1.4014962
1.3943818
1.3873336
1.3803505
1.3734316
1.3665758
1.3597823
1.35305
1.3463781
1.3397657
1.3332119
1.3267161
1.3202772
1.3138947
1.3075678
1.3012957
1.2950778
1.2889134
1.2828018
1.2767425
1.2707348
1.2647781
1.2588719
1.2530156
1.2472086
1.2414505
1.2357406
1.2300786
1.2244639
1.218896
1.2133744
1.2078987
1.2024685
1.1970833
1.1917426
1.186446
1.1811931
1.1759836
1.1708169
1.1656928
1.1606108
1.1555706
1.1505719
1.1456142
1.1406973
1.1358207
1.1309843
1.1261876
1.1214305
1.1167125
1.1120333
1.1073928
1.1027906
1.0982264
1.0936999
1.0892109
1.0847591
1.0803442
1.0759658
1.0716238
1.0673177
1.0630473
1.0588123
1.0546122
1.0504469
1.0463159
1.0422188
1.0381553
1.0341249
1.0301274
1.0261622
1.0222289
1.0183271
1.0144564
1.0106162
1.0068062
1.0030258
0.99927451
0.99555195
0.99185758
0.9881909
0.98455144
0.98093871
0.97735224
0.97379154
0.97025617
0.96674567
0.96325961
0.95979756
0.95635912
0.95294389
0.9495515
0.9461816
0.94283386
0.93950795
0.9362036
0.93292053
0.92965849
0.92641726
0.92319662
0.9199964
0.91681643
0.91365659
0.91051695
0.90739872
0.90430956
0.90130386
0.89871227
79.263617
63.543963
52.670694
44.771304
38.809108
34.169958
30.469714
27.457169
24.961848
22.864383
21.078924
19.54228
18.206989
17.036765
16.003425
15.08477
14.263092
13.524104
12.856161
12.249679
11.696704
11.190585
10.725714
10.297337
9.9013949
9.5344028
9.1933534
8.8756381
8.5789835
8.3013993
8.0411365
7.7966515
7.5665774
7.3496995
7.1449346
6.9513143
6.7679695
6.5941187
6.4290571
6.2721473
6.1228117
5.9805256
5.8448113
5.7152327
5.5913915
5.4729226
5.359491
5.250789
5.1465328
5.0464609
4.9503316
4.8579214
4.7690229
4.683444
4.6010058
4.5215422
4.444898
4.3709289
4.2994997
4.2304842
4.1637643
4.099229
4.0367745
3.9763032
3.9177232
3.8609482
3.8058969
3.7524926
3.7006628
3.6503393
3.6014575
3.5539563
3.5077779
3.4628675
3.4191733
3.376646
3.3352389
3.2949077
3.2556101
3.2173061
3.1799576
3.1435283
3.1079837
3.0732908
3.0394184
3.0063365
2.9740167
2.9424317
2.9115555
2.8813634
2.8518318
2.8229379
2.7946601
2.7669778
2.7398712
2.7133212
2.6873099
2.6618198
2.6368344
2.6123376
2.5883143
2.5647497
2.5416299
2.5189415
2.4966714
2.4748073
2.4533373
2.43225
2.4115343
2.3911797
2.371176
2.3515135
2.3321828
2.3131748
2.2944808
2.2760925
2.2580017
2.2402008
2.2226821
2.2054384
2.1884628
2.1717486
2.1552892
2.1390783
2.12311
2.1073783
2.0918775
2.0766023
2.0615473
2.0467075
2.0320777
2.0176533
2.0034295
1.989402
1.9755662
1.9619181
1.9484534
1.9351682
1.9220587
1.9091211
1.8963518
1.8837472
1.871304
1.8590188
1.8468884
1.8349097
1.8230797
1.8113954
1.799854
1.7884528
1.7771889
1.7660599
1.7550632
1.7441963
1.7334569
1.7228427
1.7123514
1.7019809
1.691729
1.6815937
1.671573
1.6616649
1.6518676
1.6421793
1.6325981
1.6231222
1.6137501
1.60448
1.5953103
1.5862394
1.5772657
1.5683878
1.5596041
1.5509131
1.5423134
1.5338035
1.5253821
1.5170477
1.5087991
1.5006347
1.4925534
1.4845538
1.4766345
1.4687944
1.461032
1.4533463
1.445736
1.4381998
1.4307365
1.4233451
1.4160243
1.408773
1.4015901
1.3944745
1.3874252
1.3804412
1.3735214
1.3666648
1.3598705
1.3531376
1.3464652
1.3398524
1.3332983
1.3268021
1.3203631
1.3139805
1.3076535
1.3013814
1.2951636
1.2889993
1.2828878
1.2768287
1.2708212
1.2648648
1.2589589
1.2531029
1.2472963
1.2415385
1.235829
1.2301674
1.2245531
1.2189857
1.2134646
1.2079894
1.2025597
1.197175
1.1918349
1.1865388
1.1812866
1.1760776
1.1709115
1.165788
1.1607067
1.1556671
1.1506689
1.1457117
1.1407953
1.1359193
1.1310833
1.126287
1.1215302
1.1168124
1.1121335
1.107493
1.1028907
1.0983264
1.0937996
1.0893102
1.0848578
1.0804422
1.076063
1.0717199
1.0674127
1.0631409
1.0589044
1.0547027
1.0505355
1.0464025
1.0423034
1.0382376
1.0342049
1.0302049
1.0262372
1.0223013
1.0183968
1.0145234
1.0106805
1.0068677
1.0030846
0.99933067
0.9956055
0.99190861
0.98823952
0.98459777
0.98098289
0.97739441
0.97383188
0.97029486
0.96678291
0.96329559
0.9598325
0.95639323
0.9529774
0.94958462
0.94621456
0.94286686
0.93954122
0.93623732
0.9329549
0.92969369
0.92645345
0.92323396
0.92003501
0.91685642
0.91369806
0.91055995
0.90744331
0.90435574
0.90135176
0.89876137
79.263617
63.543964
52.670694
44.771303
38.809103
34.16995
30.469701
27.457152
24.961827
22.864358
21.078895
19.542246
18.206952
17.036724
16.003381
15.084723
14.263042
13.524052
12.856106
12.249621
11.696645
11.190523
10.725651
10.297272
9.901328
9.5343342
9.1932834
8.8755668
8.5789109
8.3013256
8.0410618
7.7965759
7.566501
7.3496224
7.1448571
6.9512363
6.7678912
6.5940403
6.4289787
6.2720692
6.1227339
5.9804483
5.8447346
5.7151569
5.5913166
5.4728489
5.3594188
5.2507183
5.1464639
5.046394
4.9502669
4.857859
4.7689632
4.683387
4.6009518
4.5214914
4.4448506
4.3708851
4.2994597
4.2304482
4.1637324
4.0992016
4.0367516
3.976285
3.9177099
3.86094
3.8058938
3.7524948
3.7006705
3.6503526
3.6014765
3.553981
3.5078085
3.4629041
3.4192159
3.3766947
3.3352937
3.2949686
3.2556771
3.2173793
3.180037
3.1436139
3.1080754
3.0733887
3.0395224
3.0064465
2.9741327
2.9425536
2.9116833
2.881497
2.851971
2.8230827
2.7948104
2.7671334
2.7400321
2.7134873
2.687481
2.6619958
2.6370151
2.612523
2.5885041
2.5649439
2.5418284
2.519144
2.4968778
2.4750175
2.4535511
2.4324672
2.4117548
2.3914034
2.3714027
2.351743
2.3324149
2.3134095
2.2947178
2.2763317
2.2582429
2.2404438
2.2229268
2.2056847
2.1887106
2.1719976
2.1555393
2.1393294
2.1233618
2.1076308
2.0921305
2.0768557
2.061801
2.0469613
2.0323315
2.017907
2.0036831
1.9896553
1.9758191
1.9621704
1.9487052
1.9354193
1.922309
1.9093706
1.8966003
1.8839947
1.8715504
1.8592641
1.8471325
1.8351525
1.8233212
1.8116355
1.8000926
1.7886898
1.7774244
1.7662938
1.7552954
1.7444269
1.7336858
1.7230698
1.7125767
1.7022043
1.6919504
1.6818132
1.6717905
1.6618804
1.6520811
1.6423906
1.6328072
1.6233293
1.6139549
1.6046826
1.5955106
1.5864375
1.5774615
1.5685813
1.5597953
1.551102
1.5424999
1.5339878
1.5255641
1.5172274
1.5089765
1.50081
1.4927265
1.4847247
1.4768034
1.4689612
1.4611969
1.4535093
1.4458971
1.4383592
1.4308943
1.4235013
1.416179
1.4089263
1.4017422
1.3946254
1.3875751
1.38059
1.3736693
1.3668119
1.3600169
1.3532834
1.3466104
1.3399971
1.3334426
1.3269461
1.3205068
1.314124
1.3077968
1.3015245
1.2953066
1.2891422
1.2830307
1.2769715
1.270964
1.2650075
1.2591015
1.2532455
1.2474389
1.2416811
1.2359716
1.2303099
1.2246956
1.219128
1.2136069
1.2081316
1.2027018
1.197317
1.1919767
1.1866806
1.1814282
1.1762191
1.1710529
1.1659292
1.1608476
1.1558078
1.1508094
1.145852
1.1409353
1.1360589
1.1312226
1.1264259
1.1216686
1.1169503
1.1122707
1.1076296
1.1030266
1.0984614
1.0939337
1.0894433
1.0849898
1.0805729
1.0761924
1.0718478
1.067539
1.0632656
1.0590273
1.0548237
1.0506546
1.0465195
1.0424181
1.0383501
1.0343151
1.0303127
1.0263425
1.0224041
1.0184972
1.0146212
1.0107758
1.0069606
1.0031751
0.99941884
0.99569142
0.99199237
0.98832124
0.98467758
0.98106093
0.97747085
0.97390688
0.97036859
0.96685556
0.96336735
0.95990357
0.95646381
0.95304769
0.94965484
0.94628489
0.94293751
0.93961236
0.93630915
0.93302759
0.92976739
0.9265283
0.92331008
0.92011252
0.91693541
0.91377859
0.91064208
0.90752706
0.90444109
0.90143875
0.89884935
79.263617
63.543964
52.670694
44.771301
38.8091
34.169944
30.469692
27.457139
24.96181
22.864337
21.07887
19.542217
18.206918
17.036687
16.00334
15.084678
14.262993
13.523999
12.85605
12.249562
11.696582
11.190458
10.725582
10.297201
9.9012543
9.5342581
9.1932051
8.8754864
8.5788286
8.3012416
8.0409762
7.796489
7.5664129
7.3495333
7.1447672
6.9511458
6.7678003
6.5939492
6.4288876
6.2719782
6.1226434
5.9803584
5.8446456
5.715069
5.5912301
5.4727641
5.3593358
5.2506374
5.1463853
5.0463181
4.9501939
4.8577892
4.7688967
4.6833243
4.600893
4.5214368
4.4448005
4.3708397
4.2994193
4.230413
4.1637027
4.0991775
4.0367335
3.976273
3.9177042
3.8609408
3.8059014
3.7525092
3.7006919
3.6503812
3.6015124
3.5540244
3.5078594
3.4629626
3.4192822
3.3767687
3.3353756
3.2950583
3.2557748
3.2174849
3.1801505
3.1437352
3.1082046
3.0735257
3.0396672
3.006599
2.9742927
2.9427211
2.9118582
2.8816792
2.8521604
2.8232792
2.7950138
2.7673436
2.7402489
2.7137106
2.6877106
2.6622316
2.6372569
2.6127706
2.5887573
2.5652026
2.5420922
2.5194129
2.4971516
2.4752959
2.453834
2.4327544
2.412046
2.3916984
2.3717014
2.3520452
2.3327204
2.3137179
2.2950291
2.2766456
2.2585593
2.2407624
2.2232474
2.2060072
2.1890346
2.1723231
2.155866
2.1396572
2.1236906
2.1079602
2.0924606
2.0771862
2.0621317
2.047292
2.0326622
2.0182375
2.0040132
1.9899849
1.9761482
1.9624988
1.9490327
1.9357459
1.9226345
1.9096949
1.8969234
1.8843164
1.8718707
1.8595829
1.8474497
1.8354681
1.823635
1.8119475
1.8004028
1.7889981
1.7777308
1.7665982
1.7555978
1.7447271
1.7339839
1.7233657
1.7128704
1.7024957
1.6922396
1.6821001
1.672075
1.6621626
1.6523609
1.642668
1.6330822
1.6236018
1.614225
1.6049502
1.5957758
1.5867002
1.5777218
1.5688391
1.5600506
1.5513548
1.5427504
1.5342358
1.5258098
1.5174708
1.5092176
1.5010487
1.492963
1.4849591
1.4770356
1.4691914
1.4614251
1.4537356
1.4461216
1.4385819
1.4311153
1.4237206
1.4163968
1.4091427
1.4019571
1.394839
1.3877874
1.3808012
1.3738794
1.367021
1.360225
1.3534906
1.3468168
1.3402027
1.3336474
1.3271502
1.3207102
1.3143267
1.3079989
1.301726
1.2955075
1.2893425
1.2832304
1.2771706
1.2711625
1.2652054
1.2592989
1.2534422
1.2476349
1.2418764
1.2361663
1.2305039
1.2248888
1.2193206
1.2137987
1.2083227
1.2028921
1.1975064
1.1921654
1.1868684
1.1816152
1.1764052
1.1712382
1.1661136
1.1610312
1.1559905
1.1509912
1.1460329
1.1411152
1.1362379
1.1314006
1.1266029
1.1218446
1.1171252
1.1124446
1.1078023
1.1031982
1.0986318
1.0941028
1.0896111
1.0851562
1.0807379
1.0763559
1.0720099
1.0676995
1.0634245
1.0591844
1.0549791
1.0508082
1.0466713
1.042568
1.0384981
1.0344612
1.0304569
1.0264847
1.0225444
1.0186356
1.0147577
1.0109105
1.0070934
1.0033062
0.99954823
0.9958192
0.99211864
0.98844611
0.98480117
0.98118335
0.97759223
0.97402735
0.9704883
0.96697464
0.96348596
0.96002185
0.95658191
0.95316575
0.94977301
0.94640332
0.94305633
0.93973171
0.93642914
0.93314833
0.929889
0.92665086
0.92343368
0.92023722
0.91706125
0.91390562
0.9107703
0.90765647
0.90457167
0.90157049
0.8989818
79.263617
63.543963
52.670693
44.771299
38.809095
34.169936
30.469681
27.457125
24.961792
22.864315
21.078843
19.542186
18.206883
17.036647
16.003296
15.084629
14.26294
13.523942
12.855989
12.249497
11.696514
11.190386
10.725507
10.297122
9.9011725
9.5341734
9.1931176
8.8753964
8.5787363
8.3011472
8.0408798
7.7963909
7.5663133
7.3494325
7.1446653
6.9510432
6.7676972
6.5938458
6.4287842
6.2718751
6.1225409
5.9802567
5.844545
5.7149698
5.5911327
5.4726686
5.3592427
5.2505469
5.1462978
5.0462338
4.9501132
4.8577124
4.7688242
4.6832563
4.60083
4.5213789
4.4447481
4.3707931
4.2993788
4.2303789
4.1636752
4.099157
4.0367202
3.9762672
3.9177062
3.8609507
3.8059195
3.7525357
3.700727
3.650425
3.6015651
3.5540862
3.5079304
3.4630429
3.4193718
3.3768678
3.3354842
3.2951765
3.2559025
3.2176222
3.1802974
3.1438917
3.1083706
3.0737011
3.039852
3.0067931
2.974496
2.9429335
2.9120796
2.8819094
2.8523993
2.8235265
2.7952695
2.7676076
2.7405208
2.7139903
2.687998
2.6625264
2.6375589
2.6130795
2.589073
2.5655247
2.5424207
2.5197474
2.4974919
2.4756419
2.4541853
2.4331108
2.4124073
2.3920643
2.3720716
2.3524195
2.3330985
2.3140997
2.2954143
2.2770339
2.2589504
2.2411562
2.2236436
2.2064055
2.1894349
2.1727251
2.1562695
2.140062
2.1240964
2.1083669
2.0928679
2.0775939
2.0625396
2.0477
2.0330701
2.0186452
2.0044204
1.9903915
1.976554
1.9629037
1.9494366
1.9361486
1.9230359
1.9100949
1.8973219
1.8847133
1.8722658
1.8599762
1.8478411
1.8358575
1.8240223
1.8123327
1.8007858
1.7893789
1.7781092
1.7669742
1.7559713
1.7450982
1.7343525
1.7237318
1.7132339
1.7028566
1.6925979
1.6824557
1.672428
1.6625129
1.6527085
1.6430129
1.6334244
1.6239413
1.6145618
1.6052844
1.5961072
1.5870289
1.5780479
1.5691625
1.5603714
1.5516731
1.5430661
1.534549
1.5261204
1.517779
1.5095233
1.5013522
1.4932641
1.4852579
1.4773323
1.4694859
1.4617175
1.454026
1.44641
1.4388684
1.4313999
1.4240035
1.416678
1.4094222
1.4022351
1.3951155
1.3880624
1.3810747
1.3741516
1.3672918
1.3604946
1.3537589
1.3470838
1.3404685
1.3339121
1.3274138
1.3209726
1.314588
1.308259
1.3019851
1.2957653
1.2895992
1.283486
1.277425
1.2714157
1.2654574
1.2595496
1.2536917
1.2478831
1.2421233
1.2364118
1.2307481
1.2251317
1.2195621
1.2140388
1.2085613
1.2031293
1.1977422
1.1923997
1.1871013
1.1818466
1.1766352
1.1714667
1.1663407
1.1612568
1.1562147
1.1512139
1.1462542
1.1413352
1.1364564
1.1316177
1.1268186
1.1220589
1.1173382
1.1126562
1.1080125
1.103407
1.0988392
1.0943089
1.0898158
1.0853595
1.0809398
1.0765564
1.0722089
1.0678971
1.0636206
1.0593792
1.0551724
1.0510001
1.0468617
1.042757
1.0386857
1.0346474
1.0306416
1.0266681
1.0227264
1.0188163
1.0149371
1.0110887
1.0072704
1.003482
0.99972306
0.99599305
0.99229159
0.98861825
0.98497258
0.98135414
0.97776248
0.97419717
0.97065777
0.96714387
0.96365505
0.96019089
0.956751
0.95333499
0.94994249
0.94657312
0.94322654
0.9399024
0.93660039
0.9333202
0.93006153
0.92682411
0.92360768
0.920412
0.91723683
0.91408199
0.91094746
0.9078344
0.90475033
0.9017499
0.89916159
79.263617
63.543963
52.670691
44.771295
38.809089
34.169926
30.469668
27.457107
24.96177
22.864288
21.078812
19.54215
18.206842
17.036602
16.003245
15.084574
14.262881
13.523878
12.85592
12.249424
11.696436
11.190304
10.725422
10.297033
9.9010797
9.5340773
9.1930184
8.8752943
8.5786315
8.3010399
8.0407703
7.7962794
7.5662002
7.3493179
7.1445496
6.9509266
6.76758
6.5937283
6.4286668
6.2717581
6.1224245
5.9801414
5.8444311
5.7148576
5.5910225
5.4725608
5.3591377
5.2504451
5.1461995
5.0461394
4.9500231
4.8576269
4.7687438
4.6831812
4.6007607
4.5213157
4.4446915
4.3707433
4.2993362
4.2303439
4.1636482
4.0991382
4.0367099
3.9762658
3.9177139
3.8609679
3.8059463
3.7525724
3.7007739
3.6504822
3.6016328
3.5541646
3.5080196
3.4631431
3.4194831
3.3769903
3.3356179
3.2953215
3.2560589
3.2177899
3.1804763
3.1440819
3.108572
3.0739137
3.0400756
3.0070278
2.9747415
2.9431897
2.9123463
2.8821866
2.8526867
2.823824
2.7955768
2.7679245
2.7408472
2.7143259
2.6883425
2.6628796
2.6379205
2.6134493
2.5894507
2.5659102
2.5428135
2.5201474
2.4978987
2.4760552
2.4546049
2.4335363
2.4128385
2.3925009
2.3725134
2.3528661
2.3335497
2.3145551
2.2958736
2.2774969
2.2594168
2.2416257
2.224116
2.2068804
2.1899121
2.1732043
2.1567504
2.1405444
2.12458
2.1088515
2.0933532
2.0780798
2.0630258
2.0481863
2.0335563
2.0191309
2.0049057
1.9908761
1.9770377
1.9633863
1.949918
1.9366286
1.9235144
1.9105717
1.8977969
1.8851864
1.8727369
1.8604451
1.8483077
1.8363218
1.8244842
1.8127921
1.8012426
1.789833
1.7785606
1.7674228
1.7564172
1.7455412
1.7347925
1.7241689
1.713668
1.7032878
1.6930261
1.6828808
1.6728501
1.662932
1.6531245
1.6434259
1.6338344
1.6243483
1.6149658
1.6056853
1.5965052
1.587424
1.57844
1.5695518
1.5607578
1.5520567
1.5434469
1.5349271
1.5264958
1.5181517
1.5098935
1.5017198
1.4936293
1.4856207
1.4776926
1.4698439
1.4620733
1.4543796
1.4467614
1.4392177
1.4317473
1.4243489
1.4170215
1.4097638
1.4025748
1.3954535
1.3883986
1.3814093
1.3744845
1.3676231
1.3608242
1.3540869
1.3474103
1.3407934
1.3342354
1.3277355
1.3212928
1.3149066
1.308576
1.3023004
1.2960791
1.2899113
1.2837964
1.2777337
1.2717226
1.2657626
1.259853
1.2539932
1.2481828
1.2424212
1.2367078
1.2310421
1.2254237
1.2198521
1.2143269
1.2088474
1.2034134
1.1980243
1.1926798
1.1873794
1.1821227
1.1769094
1.1717389
1.166611
1.1615252
1.1564811
1.1514785
1.146517
1.1415962
1.1367157
1.1318752
1.1270745
1.1223131
1.1175908
1.1129072
1.108262
1.103655
1.0990857
1.094554
1.0900595
1.0856019
1.0811808
1.0767961
1.0724474
1.0681344
1.0638567
1.0596141
1.0554062
1.0512327
1.0470933
1.0429876
1.0389153
1.0348759
1.0308693
1.0268949
1.0229524
1.0190414
1.0151615
1.0113124
1.0074935
1.0037045
0.999945
0.99621453
0.99251268
0.98883901
0.98519309
0.98157446
0.97798268
0.97441732
0.97087794
0.96736412
0.96387544
0.96041148
0.95697185
0.95355616
0.95016402
0.94679506
0.94344893
0.94012528
0.93682379
0.93354414
0.93028603
0.92704919
0.92383334
0.92063823
0.91746363
0.91430934
0.91117534
0.90806278
0.90497917
0.90197921
0.89939107
79.263617
63.543962
52.670689
44.77129
38.80908
34.169914
30.469651
27.457085
24.961743
22.864256
21.078775
19.542108
18.206794
17.036548
16.003187
15.08451
14.262811
13.523803
12.85584
12.24934
11.696347
11.190211
10.725323
10.296931
9.9009735
9.5339673
9.1929048
8.8751774
8.5785115
8.3009172
8.0406451
7.796152
7.5660708
7.3491869
7.1444173
6.9507933
6.7674461
6.5935942
6.4285327
6.2716244
6.1222917
5.9800098
5.844301
5.7147295
5.5908969
5.472438
5.3590181
5.2503292
5.1460877
5.0460321
4.9499207
4.85753
4.7686526
4.6830964
4.6006825
4.5212447
4.444628
4.3706878
4.2992891
4.2303055
4.1636189
4.0991185
4.0367001
3.9762662
3.9177249
3.8609898
3.8059794
3.752617
3.7008302
3.6505506
3.6017134
3.5542575
3.5081251
3.4632613
3.4196142
3.3771343
3.3357749
3.2954916
3.2562421
3.2179862
3.1806857
3.1443044
3.1088075
3.0741622
3.0403369
3.0073017
2.975028
2.9434886
2.9126575
2.8825098
2.8530217
2.8241706
2.7959349
2.7682937
2.7412273
2.7147166
2.6887436
2.6632908
2.6383415
2.6138798
2.5898904
2.5663587
2.5432706
2.5206127
2.4983719
2.476536
2.455093
2.4340313
2.4133401
2.3930088
2.3730271
2.3533854
2.3340742
2.3150845
2.2964077
2.2780352
2.2599591
2.2421715
2.2246651
2.2074325
2.1904668
2.1737613
2.1573095
2.1411052
2.1251422
2.1094149
2.0939175
2.0786446
2.063591
2.0487516
2.0341215
2.0196958
2.0054699
1.9914395
1.9776
1.9639475
1.9504777
1.9371867
1.9240708
1.9111262
1.8983492
1.8857365
1.8732847
1.8609904
1.8488504
1.8368617
1.8250213
1.8133263
1.8017738
1.7903612
1.7790856
1.7679446
1.7569357
1.7460565
1.7353045
1.7246774
1.7141732
1.7037895
1.6935244
1.6833757
1.6733416
1.66342
1.6536091
1.6439071
1.6343121
1.6248226
1.6154368
1.606153
1.5969696
1.587885
1.5788978
1.5700064
1.5612093
1.5525051
1.5438923
1.5353694
1.5269352
1.5185883
1.5103273
1.5021508
1.4940575
1.4860463
1.4781157
1.4702644
1.4624914
1.4547952
1.4471747
1.4396287
1.432156
1.4247554
1.4174258
1.4101661
1.402975
1.3958517
1.3887948
1.3818035
1.3748767
1.3680134
1.3612126
1.3544734
1.3477949
1.3411761
1.3346162
1.3281143
1.3216696
1.3152814
1.3089489
1.3026713
1.2964478
1.290278
1.2841609
1.2780961
1.2720828
1.2661206
1.2602087
1.2543466
1.2485338
1.2427698
1.237054
1.231386
1.2257651
1.2201911
1.2146633
1.2091814
1.2037449
1.1983534
1.1930064
1.1877035
1.1824444
1.1772286
1.1720558
1.1669255
1.1618374
1.1567911
1.1517863
1.1468226
1.1418996
1.1370171
1.1321747
1.127372
1.1226088
1.1178847
1.1131993
1.1085525
1.1039439
1.0993732
1.09484
1.0903441
1.0858852
1.0814629
1.077077
1.0727272
1.0684131
1.0641345
1.0598909
1.0556822
1.0515079
1.0473677
1.0432614
1.0391884
1.0351485
1.0311413
1.0271665
1.0232235
1.0193122
1.015432
1.0115826
1.0077636
1.0039745
1.0002149
0.9964844
0.99278259
0.98910901
0.98546324
0.98184482
0.9782533
0.97468825
0.97114921
0.96763578
0.96414752
0.96068402
0.95724488
0.9538297
0.95043809
0.94706969
0.94372412
0.94040105
0.93710014
0.93382107
0.93056354
0.92732726
0.92411195
0.92091737
0.91774327
0.91458945
0.91145588
0.90834373
0.90526046
0.90226089
0.8996728
79.263617
63.543961
52.670686
44.771284
38.80907
34.169899
30.469631
27.45706
24.961711
22.864219
21.078731
19.542058
18.206738
17.036486
16.003118
15.084436
14.262731
13.523717
12.855749
12.249242
11.696245
11.190103
10.725211
10.296813
9.9008516
9.5338412
9.1927747
8.8750436
8.5783743
8.3007767
8.0405019
7.7960062
7.5659229
7.3490371
7.1442661
6.950641
6.767293
6.5934408
6.4283794
6.2714716
6.1221398
5.9798592
5.8441523
5.714583
5.5907531
5.4722974
5.3588812
5.2501964
5.1459596
5.0459091
4.9498033
4.8574187
4.768548
4.6829989
4.6005926
4.5211629
4.4445548
4.3706236
4.2992344
4.2302609
4.1635847
4.0990952
4.0366881
3.9762659
3.9177367
3.861014
3.8060164
3.7526671
3.7008937
3.6506277
3.6018045
3.5543628
3.5082447
3.4633954
3.4197629
3.3772978
3.3359533
3.2956849
3.2564504
3.2182095
3.180924
3.1445576
3.1090756
3.074445
3.0406344
3.0076138
2.9753544
2.9438292
2.913012
2.8828781
2.8534036
2.8245658
2.7963431
2.7687146
2.7416607
2.7151622
2.689201
2.6637597
2.6388216
2.6143707
2.5903918
2.5668702
2.5437919
2.5211433
2.4989116
2.4770844
2.4556496
2.4345958
2.4139122
2.393588
2.3736131
2.3539777
2.3346725
2.3156885
2.2970168
2.2786492
2.2605776
2.2427942
2.2252914
2.2080622
2.1910996
2.1743968
2.1579473
2.141745
2.1257837
2.1100577
2.0945613
2.0792891
2.064236
2.0493967
2.0347664
2.0203403
2.0061137
1.9920823
1.9782418
1.9645878
1.9511164
1.9378236
1.9247056
1.9117588
1.8989795
1.8863642
1.8739096
1.8616125
1.8494695
1.8374778
1.8256341
1.8139358
1.8023799
1.7909637
1.7796846
1.7685399
1.7575273
1.7466443
1.7358885
1.7252576
1.7147495
1.704362
1.6940929
1.6839404
1.6739023
1.6639768
1.654162
1.6444561
1.6348574
1.6253641
1.6159744
1.6066869
1.5974998
1.5884117
1.5794209
1.5705259
1.5617253
1.5530177
1.5444015
1.5358754
1.5274379
1.5190878
1.5108237
1.5026442
1.494548
1.4865338
1.4786004
1.4707464
1.4629706
1.4552718
1.4476487
1.4401002
1.432625
1.425222
1.4178901
1.4106279
1.4034346
1.3963089
1.3892499
1.3822563
1.3753273
1.3684618
1.3616588
1.3549174
1.3482367
1.3416157
1.3350535
1.3285494
1.3221025
1.315712
1.3093771
1.3030971
1.2968713
1.2906989
1.2845794
1.278512
1.2724961
1.2665312
1.2606167
1.2547519
1.2489364
1.2431696
1.237451
1.2317801
1.2261564
1.2205795
1.2150488
1.209564
1.2041246
1.1987302
1.1933803
1.1880746
1.1828127
1.1775941
1.1724185
1.1672855
1.1621948
1.1571459
1.1521386
1.1471725
1.1422471
1.1373623
1.1325177
1.1277129
1.1229476
1.1182216
1.1135344
1.1088859
1.1042756
1.0997033
1.0951687
1.0906714
1.0862112
1.0817878
1.0774009
1.0730501
1.0687351
1.0644557
1.0602114
1.0560021
1.0518272
1.0476866
1.0435798
1.0395066
1.0354665
1.0314591
1.0274842
1.0235413
1.01963
1.0157499
1.0119007
1.0080818
1.004293
1.0005338
0.9968037
0.99310234
0.98942927
0.98578405
0.98216623
0.97857535
0.97501096
0.97147263
0.96795991
0.9644724
0.96100966
0.95757128
0.95415688
0.95076605
0.94739842
0.94405363
0.94073132
0.93743116
0.93415282
0.93089599
0.92766039
0.92444573
0.92125176
0.91807823
0.91492495
0.91179188
0.90868017
0.9055973
0.90259817
0.90001013
79.263617
63.54396
52.670683
44.771276
38.809058
34.169882
30.469607
27.45703
24.961675
22.864175
21.078681
19.542001
18.206674
17.036415
16.00304
15.084351
14.262639
13.523619
12.855644
12.249131
11.696128
11.18998
10.725082
10.29668
9.9007127
9.5336974
9.1926264
8.8748911
8.5782178
8.3006167
8.0403386
7.7958401
7.5657543
7.3488664
7.1440936
6.9504672
6.7671185
6.5932658
6.4282044
6.2712971
6.1219663
5.9796872
5.8439822
5.7144155
5.5905885
5.4721364
5.3587242
5.2500441
5.1458124
5.0457677
4.9496682
4.8572904
4.7684271
4.682886
4.6004882
4.5210676
4.4444691
4.3705482
4.2991697
4.2302074
4.1635429
4.0990656
4.0366712
3.9762622
3.9177466
3.8610379
3.8060547
3.7527202
3.7009619
3.6507113
3.6019038
3.554478
3.5083762
3.4635432
3.4199273
3.377479
3.3361513
3.2958997
3.2566821
3.2184582
3.1811896
3.1448401
3.1093748
3.074761
3.0409669
3.0079627
2.9757195
2.9442103
2.913409
2.8832906
2.8538313
2.8250086
2.7968006
2.7691865
2.7421466
2.7156619
2.689714
2.6642857
2.6393603
2.6149216
2.5909545
2.5674444
2.5443771
2.5217392
2.4995177
2.4777002
2.4562747
2.4352299
2.4145547
2.3942386
2.3742713
2.3546432
2.3353448
2.3163671
2.2977013
2.2793392
2.2612727
2.2434939
2.2259954
2.2087701
2.1918108
2.1751111
2.1586642
2.1424641
2.1265048
2.1107803
2.095285
2.0800137
2.064961
2.0501219
2.0354914
2.0210648
2.0068375
1.9928051
1.9789632
1.9653077
1.9518344
1.9385396
1.9254193
1.91247
1.8996879
1.8870698
1.8746121
1.8623117
1.8501654
1.8381701
1.8263228
1.8146207
1.8030609
1.7916407
1.7803575
1.7692088
1.7581919
1.7473046
1.7365445
1.7259093
1.7153969
1.705005
1.6947315
1.6845746
1.6745321
1.6646023
1.6547831
1.645073
1.6354699
1.6259723
1.6165785
1.6072868
1.5980957
1.5890035
1.5800087
1.5711098
1.5623054
1.5535939
1.544974
1.5364443
1.5280033
1.5196497
1.5113822
1.5031994
1.4950999
1.4870826
1.4791461
1.4712891
1.4635103
1.4558087
1.4481828
1.4406315
1.4331536
1.425748
1.4184134
1.4111487
1.4039529
1.3968247
1.3897632
1.3827672
1.3758358
1.3689678
1.3621624
1.3554186
1.3487354
1.3421119
1.3355473
1.3290406
1.3225912
1.3161981
1.3098605
1.3035779
1.2973493
1.2911742
1.2850519
1.2789816
1.2729629