/*--------------------------------*- C++ -*----------------------------------*\
| =========                 |                                                 |
| \\      /  F ield         | OpenFOAM: The Open Source CFD Toolbox           |
|  \\    /   O peration     | Version:  2506                                  |
|   \\  /    A nd           | Website:  www.openfoam.com                      |
|    \\/     M anipulation  |                                                 |
\*---------------------------------------------------------------------------*/
FoamFile
{
    version     2.0;
    format      ascii;
    arch        "LSB;label=32;scalar=64";
    class       volScalarField;
    location    "5000";
    object      p;
}
// * * * * * * * * * * * * * * * * * * * * * * * * * * * * * * * * * * * * * //

dimensions      [0 2 -2 0 0 0 0];

internalField   nonuniform List<scalar> 
68056
(
0.086567339
0.086550135
0.086492999
0.086397375
0.086268246
0.086105721
0.08590884
0.085677403
0.08541142
0.085110749
0.084775168
0.08440445
0.083998357
0.083556628
0.083078984
0.082565129
0.082014754
0.081427537
0.080803144
0.080141232
0.07944145
0.078703438
0.077926833
0.077111269
0.076256379
0.075361798
0.074427165
0.073452125
0.072436335
0.071379462
0.070281188
0.069141216
0.067959268
0.066735091
0.065468462
0.064159185
0.062807104
0.061412099
0.059974092
0.058493051
0.056968992
0.055401987
0.053792162
0.052139704
0.050444862
0.048707956
0.04692937
0.045109567
0.043249084
0.041348536
0.03940862
0.037430119
0.035413899
0.033360915
0.03127221
0.029148916
0.026992257
0.024803547
0.022584189
0.020335678
0.018059593
0.015757605
0.013431465
0.011083011
0.0087141544
0.006326887
0.0039232688
0.0015054298
-0.00092444031
-0.003364092
-0.0058112269
-0.0082634981
-0.010718522
-0.013173879
-0.015627128
-0.018075802
-0.020517427
-0.022949521
-0.025369606
-0.02777521
-0.03016388
-0.032533184
-0.034880721
-0.037204126
-0.039501078
-0.041769301
-0.044006578
-0.04621075
-0.048379723
-0.050511473
-0.052604051
-0.054655585
-0.056664283
-0.058628439
-0.060546434
-0.062416737
-0.064237909
-0.0660086
-0.067727557
-0.069393617
-0.071005712
-0.072562866
-0.074064198
-0.075508914
-0.076896316
-0.078225791
-0.079496815
-0.080708949
-0.08186184
-0.082955214
-0.083988876
-0.084962712
-0.085876678
-0.086730806
-0.087525196
-0.088260015
-0.088935495
-0.089551933
-0.090109683
-0.09060916
-0.09105083
-0.091435218
-0.091762897
-0.092034491
-0.092250672
-0.092412157
-0.09251971
-0.092574136
-0.092576283
-0.092527037
-0.092427321
-0.092278097
-0.092080362
-0.091835148
-0.091543521
-0.09120658
-0.090825457
-0.090401315
-0.089935347
-0.089428776
-0.088882852
-0.088298854
-0.087678087
-0.08702188
-0.086331586
-0.085608582
-0.084854264
-0.084070048
-0.083257371
-0.08241768
-0.081552442
-0.080663132
-0.079751239
-0.078818256
-0.077865686
-0.07689503
-0.075907795
-0.07490548
-0.073889587
-0.072861602
-0.071823009
-0.070775271
-0.069719843
-0.068658153
-0.067591613
-0.066521608
-0.065449495
-0.0643766
-0.063304216
-0.062233599
-0.061165966
-0.060102491
-0.059044306
-0.057992493
-0.056948086
-0.055912066
-0.054885362
-0.053868845
-0.052863328
-0.051869568
-0.050888255
-0.049920022
-0.048965436
-0.048025
-0.047099151
-0.046188264
-0.045292642
-0.044412529
-0.043548097
-0.042699459
-0.041866658
-0.041049681
-0.040248443
-0.03946281
-0.038692579
-0.037937502
-0.037197263
-0.036471511
-0.035759831
-0.035061777
-0.034376847
-0.033704515
-0.033044208
-0.032395334
-0.031757263
-0.031129357
-0.030510945
-0.029901358
-0.029299904
-0.028705902
-0.028118657
-0.027537494
-0.026961732
-0.026390721
-0.025823811
-0.025260396
-0.024699874
-0.024141693
-0.023585319
-0.023030269
-0.022476086
-0.02192237
-0.021368751
-0.020814922
-0.020260609
-0.019705603
-0.019149731
-0.018592887
-0.018035004
-0.017476078
-0.016916147
-0.01635531
-0.015793706
-0.015231534
-0.01466903
-0.014106484
-0.013544225
-0.012982629
-0.012422103
-0.011863102
-0.011306106
-0.010751632
-0.010200225
-0.0096524558
-0.0091089178
-0.0085702258
-0.0080370116
-0.0075099205
-0.0069896112
-0.0064767478
-0.0059720039
-0.0054760511
-0.0049895664
-0.0045132177
-0.0040476744
-0.0035935895
-0.0031516144
-0.0027223773
-0.0023065011
-0.0019045791
-0.0015171965
-0.0011449022
-0.00078823429
-0.00044768839
-0.00012374673
0.00018315666
0.00047260386
0.00074423129
0.00099769507
0.0012327121
0.0014490203
0.0016464217
0.00182474
0.0019838674
0.0021237193
0.0022442841
0.0023455752
0.0024276829
0.0024907232
0.002534893
0.0025604151
0.0025675959
0.0025567682
0.0025283496
0.0024827837
0.0024205996
0.0023423513
0.0022486771
0.0021402375
0.0020177742
0.0018820455
0.0017338832
0.0015741293
0.0014036868
0.0012234297
0.0010344887
0.00083644183
0.00063760906
0.00040163304
0.00033269423
0.08660503
0.086585591
0.086527918
0.086432253
0.086303004
0.086140453
0.085943653
0.08571233
0.085446476
0.085145955
0.084810543
0.08444001
0.084034119
0.083592607
0.083115192
0.082601577
0.082051451
0.08146449
0.080840358
0.080178711
0.079479193
0.078741445
0.0779651
0.07714979
0.076295145
0.075400798
0.074466385
0.073491549
0.072475942
0.07141923
0.070321091
0.069181225
0.067999349
0.066775209
0.065508577
0.064199256
0.062847084
0.061451937
0.060013736
0.058532445
0.057008077
0.055440699
0.053830436
0.05217747
0.050482049
0.048744489
0.046965173
0.045144561
0.043283188
0.041381667
0.039440696
0.037461053
0.035443607
0.03338931
0.031299207
0.02917443
0.027016205
0.024825844
0.022604756
0.020354435
0.018076465
0.015772519
0.013444353
0.011093806
0.008722798
0.0063333218
0.0039274457
0.0015073025
-0.00092490979
-0.003366938
-0.0058164748
-0.0082711695
-0.010728629
-0.013186431
-0.015642121
-0.018093233
-0.02053728
-0.022971778
-0.025394238
-0.027802185
-0.030193159
-0.032564721
-0.034914466
-0.037240023
-0.039539063
-0.041809311
-0.044048542
-0.046254595
-0.048425371
-0.050558845
-0.052653064
-0.054706153
-0.056716322
-0.05868186
-0.06060115
-0.062472658
-0.064294946
-0.066066665
-0.067786561
-0.069453473
-0.071066334
-0.07262417
-0.074126099
-0.075571332
-0.07695917
-0.078289004
-0.079560312
-0.080772657
-0.081925687
-0.08301913
-0.084052797
-0.085026572
-0.085940416
-0.086794361
-0.087588509
-0.088323031
-0.08899816
-0.089614193
-0.090171487
-0.090670457
-0.091111573
-0.091495358
-0.091822388
-0.092093286
-0.092308725
-0.092469423
-0.092576143
-0.092629694
-0.092630922
-0.092580715
-0.092479995
-0.092329724
-0.092130899
-0.091884551
-0.091591747
-0.091253586
-0.090871199
-0.090445751
-0.089978434
-0.089470472
-0.088923115
-0.088337644
-0.087715362
-0.087057603
-0.086365718
-0.085641088
-0.084885108
-0.084099201
-0.0832848
-0.08244336
-0.081576347
-0.080685243
-0.079771535
-0.078836726
-0.077882317
-0.076909818
-0.075920735
-0.074916579
-0.073898848
-0.072869041
-0.07182864
-0.070779119
-0.069721933
-0.068658521
-0.067590295
-0.066518649
-0.065444942
-0.064370509
-0.063296646
-0.062224615
-0.061155636
-0.060090892
-0.059031514
-0.057978593
-0.056933164
-0.055896213
-0.054868672
-0.053851415
-0.052845259
-0.05185096
-0.050869214
-0.049900652
-0.048945844
-0.048005291
-0.047079433
-0.04616864
-0.045273219
-0.044393406
-0.043529378
-0.042681238
-0.041849033
-0.041032736
-0.040232271
-0.039447486
-0.038678184
-0.037924099
-0.037184923
-0.036460284
-0.035749774
-0.035052925
-0.034369243
-0.033698179
-0.033039166
-0.032391591
-0.031754829
-0.031128219
-0.030511096
-0.02990277
-0.029302554
-0.028709745
-0.028123654
-0.027543585
-0.026968864
-0.026398819
-0.025832811
-0.025270209
-0.024710424
-0.024152882
-0.02359706
-0.023042456
-0.022488625
-0.021935149
-0.021381671
-0.020827868
-0.020273478
-0.01971828
-0.019162113
-0.018604862
-0.018046469
-0.017486926
-0.01692628
-0.016364625
-0.015802114
-0.01523894
-0.014675351
-0.014111638
-0.013548139
-0.01298523
-0.012423331
-0.011862898
-0.01130442
-0.010748421
-0.010195452
-0.0096460909
-0.0091009382
-0.0085606175
-0.0080257652
-0.0074970375
-0.0069750957
-0.0064606168
-0.0059542751
-0.0054567565
-0.004968737
-0.0044909
-0.004023912
-0.0035684429
-0.0031251393
-0.0026946471
-0.0022775827
-0.0018745581
-0.0014861498
-0.0011129266
-0.00075541568
-0.00041413346
-8.9549298e-05
0.00021788148
0.00050775604
0.000779689
0.0010333541
0.0012684464
0.001484724
0.0016819664
0.0018600188
0.0020187501
0.0021580995
0.0022780319
0.0023785862
0.0024598291
0.0025219045
0.0025649852
0.0025893243
0.0025952041
0.0025829893
0.0025530737
0.0025059345
0.0024420777
0.002362092
0.0022665938
0.0021562804
0.0020318729
0.0018941691
0.0017439827
0.0015821995
0.0014097083
0.0012274529
0.0010364521
0.00083692955
0.00063468101
0.00040547118
0.00030092469
0.086673881
0.08665363
0.086595758
0.086500167
0.086370979
0.086208542
0.086011936
0.085780851
0.085515269
0.085215053
0.084879981
0.08450982
0.084104328
0.083663241
0.083186275
0.08267313
0.082123489
0.081537027
0.080913403
0.08025227
0.079553267
0.078816031
0.078040192
0.077225375
0.076371207
0.075477315
0.074543329
0.073568888
0.072553638
0.071497237
0.070399359
0.069259697
0.068077963
0.066853894
0.065587256
0.064277846
0.062925495
0.061530073
0.060091493
0.058609713
0.057084741
0.055516635
0.053905516
0.052251559
0.050555008
0.048816171
0.047035429
0.045213236
0.043350124
0.041446702
0.039503665
0.037521792
0.035501946
0.033445082
0.031352243
0.029224563
0.027063269
0.024869679
0.022645201
0.020391336
0.018109673
0.01580189
0.013469751
0.011115104
0.0087398757
0.0063460701
0.003935764
0.0015111028
-0.00092570555
-0.0033723945
-0.0058266456
-0.0082860939
-0.010748335
-0.01321093
-0.015671416
-0.018127308
-0.02057611
-0.023015321
-0.025442442
-0.027854984
-0.030250475
-0.032626464
-0.034980534
-0.037310304
-0.039613437
-0.041887645
-0.044130698
-0.046340425
-0.048514722
-0.050651558
-0.052748973
-0.05480509
-0.056818113
-0.058786332
-0.060708125
-0.062581958
-0.064406394
-0.066180083
-0.067901773
-0.069570305
-0.071184613
-0.072743726
-0.074246767
-0.075692948
-0.077081577
-0.078412046
-0.079683839
-0.080896524
-0.082049753
-0.08314326
-0.084176859
-0.08515044
-0.086063968
-0.086917481
-0.087711085
-0.088444954
-0.089119326
-0.089734503
-0.090290845
-0.090788769
-0.09122875
-0.091611314
-0.091937037
-0.092206548
-0.092420519
-0.09257967
-0.092684769
-0.092736623
-0.092736082
-0.092684033
-0.0925814
-0.092429145
-0.092228265
-0.091979793
-0.091684794
-0.091344368
-0.090959648
-0.090531798
-0.090062011
-0.089551511
-0.08900155
-0.088413409
-0.087788395
-0.087127839
-0.086433099
-0.085705555
-0.084946607
-0.084157679
-0.083340209
-0.082495655
-0.081625488
-0.080731193
-0.079814267
-0.078876211
-0.077918539
-0.076942762
-0.075950397
-0.074942957
-0.073921953
-0.072888887
-0.071845252
-0.070792528
-0.069732179
-0.068665651
-0.067594368
-0.066519728
-0.065443103
-0.064365832
-0.063289222
-0.062214543
-0.061143023
-0.060075851
-0.059014168
-0.05795907
-0.0569116
-0.055872751
-0.054843458
-0.053824603
-0.052817005
-0.051821427
-0.050838566
-0.049869058
-0.048913472
-0.047972314
-0.047046021
-0.046134966
-0.045239451
-0.044359715
-0.043495927
-0.042648192
-0.041816547
-0.041000966
-0.04020136
-0.039417579
-0.03864941
-0.037896587
-0.037158785
-0.03643563
-0.035726697
-0.035031515
-0.034349571
-0.033680313
-0.033023153
-0.032377476
-0.031742634
-0.031117964
-0.030502779
-0.029896385
-0.029298074
-0.02870714
-0.028122872
-0.027544571
-0.026971545
-0.026403117
-0.02583863
-0.025277452
-0.024718976
-0.024162628
-0.023607869
-0.023054198
-0.022501155
-0.021948326
-0.021395342
-0.020841882
-0.020287676
-0.019732507
-0.019176208
-0.018618668
-0.018059828
-0.017499682
-0.01693828
-0.016375722
-0.015812159
-0.015247797
-0.014682884
-0.01411772
-0.013552648
-0.012988056
-0.012424367
-0.011862049
-0.011301599
-0.01074355
-0.010188463
-0.0096369253
-0.0090895494
-0.0085469667
-0.0080098267
-0.007478793
-0.0069545411
-0.0064377541
-0.0059291217
-0.0054293347
-0.0049390851
-0.0044590601
-0.0039899427
-0.0035324054
-0.0030871114
-0.002654708
-0.0022358284
-0.0018310846
-0.0014410699
-0.0010663516
-0.00070747386
-0.00036494978
-3.9265513e-05
0.00026912847
0.00055981281
0.00083240864
0.0010865732
0.00132201
0.0015384624
0.0017357208
0.0019136155
0.0020720276
0.0022108817
0.0023301563
0.0024298765
0.0025101244
0.0025710309
0.0026127861
0.0026356307
0.0026398665
0.0026258466
0.0025939861
0.002544752
0.0024786733
0.0023963302
0.0022983642
0.0021854662
0.0020583855
0.0019179165
0.0017649058
0.0016002412
0.0014248545
0.0012397039
0.0010458744
0.00084363372
0.00063893476
0.00040735296
0.00030415537
0.08677621
0.086755867
0.086697954
0.086602439
0.086473392
0.086311164
0.086114846
0.085884118
0.085618947
0.085319195
0.084984638
0.084615039
0.084210151
0.083769708
0.08329342
0.082780983
0.082232075
0.081646365
0.081023508
0.080363149
0.079664924
0.078928461
0.078153384
0.077339312
0.076485863
0.075592657
0.074659317
0.073685472
0.07267076
0.07161483
0.070517348
0.069377994
0.068196474
0.066972513
0.065705869
0.064396326
0.063043708
0.061647873
0.060208724
0.05872621
0.057200327
0.055631127
0.054018718
0.052363269
0.050665014
0.048924254
0.047141362
0.045316786
0.043451051
0.041544763
0.039598611
0.037613372
0.035589907
0.033529169
0.031432203
0.029300143
0.02713422
0.024935753
0.022706159
0.020446944
0.018159706
0.015846133
0.013507997
0.01114716
0.0087655607
0.0063652185
0.0039482256
0.0015167434
-0.00092700234
-0.0033807272
-0.0058420934
-0.0083087169
-0.010778173
-0.013248003
-0.015715722
-0.018178827
-0.0206348
-0.02308112
-0.025515269
-0.027934737
-0.030337034
-0.032719692
-0.035080277
-0.037416391
-0.039725682
-0.042005849
-0.044254647
-0.046469896
-0.048649481
-0.050791361
-0.05289357
-0.054954223
-0.05697152
-0.058943746
-0.060869277
-0.06274658
-0.064574213
-0.06635083
-0.068075181
-0.069746107
-0.071362549
-0.072923539
-0.074428203
-0.075875763
-0.077265529
-0.078596901
-0.079869371
-0.081082513
-0.082235986
-0.083329533
-0.084362975
-0.085336209
-0.086249209
-0.087102018
-0.087894752
-0.08862759
-0.089300778
-0.089914624
-0.090469492
-0.090965808
-0.09140405
-0.091784748
-0.092108485
-0.092375891
-0.092587644
-0.092744465
-0.092847126
-0.092896437
-0.092893251
-0.092838456
-0.092732978
-0.092577778
-0.092373857
-0.092122245
-0.091824011
-0.091480254
-0.091092108
-0.090660737
-0.090187335
-0.089673128
-0.089119368
-0.088527338
-0.087898346
-0.087233726
-0.086534838
-0.085803065
-0.085039812
-0.084246504
-0.083424586
-0.082575521
-0.081700784
-0.080801869
-0.079880275
-0.078937516
-0.077975109
-0.076994578
-0.075997445
-0.074985235
-0.073959468
-0.072921656
-0.071873303
-0.070815901
-0.069750924
-0.06867983
-0.067604055
-0.066525008
-0.065444074
-0.064362603
-0.063281913
-0.062203286
-0.061127962
-0.060057141
-0.058991974
-0.057933567
-0.056882974
-0.055841195
-0.054809175
-0.053787803
-0.052777907
-0.051780253
-0.050795546
-0.049824425
-0.048867464
-0.047925169
-0.046997981
-0.046086271
-0.045190343
-0.044310432
-0.043446705
-0.042599263
-0.041768138
-0.040953298
-0.040154646
-0.039372022
-0.038605207
-0.037853921
-0.037117831
-0.036396547
-0.035689634
-0.034996605
-0.034316934
-0.033650051
-0.032995356
-0.032352212
-0.031719961
-0.031097917
-0.030485381
-0.029881636
-0.029285964
-0.028697635
-0.028115927
-0.02754012
-0.026969509
-0.026403401
-0.025841124
-0.025282031
-0.024725503
-0.024170953
-0.023617831
-0.023065626
-0.022513869
-0.021962136
-0.021410053
-0.020857292
-0.02030358
-0.019748694
-0.019192468
-0.018634787
-0.018075595
-0.017514886
-0.016952713
-0.01638918
-0.015824443
-0.015258712
-0.014692246
-0.014125349
-0.013558374
-0.012991717
-0.012425815
-0.011861142
-0.011298211
-0.010737563
-0.010179775
-0.0096254451
-0.0090751992
-0.0085296825
-0.0079895578
-0.0074555031
-0.006928207
-0.0064083676
-0.0058966872
-0.0053938721
-0.0049006261
-0.004417652
-0.003945644
-0.00348529
-0.0030372637
-0.0026022273
-0.0021808236
-0.0017736791
-0.0013813955
-0.0010045538
-0.00064370558
-0.00029937695
2.7940023e-05
0.00033778273
0.00062972735
0.0009033838
0.001158406
0.0013944875
0.0016113711
0.0018088401
0.001986726
0.0021449027
0.0022832972
0.0024018821
0.0025006865
0.0025797881
0.0026393236
0.0026794804
0.0027005072
0.0027027044
0.0026864353
0.0026521158
0.0026002249
0.0025312945
0.0024459196
0.0023447469
0.0022284852
0.0020978923
0.0019537847
0.0017970229
0.0016285236
0.001449243
0.0012601784
0.0010624758
0.00085639935
0.00064830769
0.000412569
0.00031143419
0.086912151
0.086891795
0.086833898
0.086738514
0.0866097
0.08644779
0.086251876
0.086021634
0.085757023
0.085457901
0.08512404
0.084755196
0.084351121
0.083911542
0.083436164
0.082924676
0.082376751
0.08179205
0.081170221
0.080510902
0.079813719
0.079078295
0.078304241
0.07749117
0.076638688
0.075746406
0.074813936
0.073840895
0.07282691
0.071771619
0.070674673
0.069535743
0.068354518
0.067130714
0.065864071
0.064554364
0.063201401
0.061805027
0.060365131
0.058881649
0.057354564
0.055783914
0.054169797
0.052512368
0.050811851
0.049068535
0.047282784
0.045455037
0.043585812
0.041675706
0.039725406
0.03773568
0.03570739
0.033641487
0.031539015
0.029401111
0.027229009
0.025024034
0.02278761
0.020521252
0.018226568
0.015905258
0.013559112
0.011190004
0.008799892
0.0063908149
0.0039648852
0.0015242868
-0.00092873146
-0.0033918604
-0.0058627371
-0.008338951
-0.010818051
-0.013297551
-0.015774938
-0.018247682
-0.020713237
-0.023169056
-0.025612594
-0.028041315
-0.030452703
-0.032844267
-0.03521355
-0.037558132
-0.039875641
-0.042163757
-0.044420219
-0.04664283
-0.048829462
-0.050978061
-0.053086653
-0.055153343
-0.057176324
-0.059153876
-0.061084373
-0.062966278
-0.06479815
-0.066578646
-0.068306514
-0.069980603
-0.071599857
-0.073163314
-0.074670108
-0.076119466
-0.077510709
-0.078843246
-0.080116577
-0.081330286
-0.082484044
-0.083577602
-0.084610792
-0.085583522
-0.086495776
-0.087347608
-0.088139142
-0.088870568
-0.08954214
-0.090154175
-0.090707048
-0.091201189
-0.091637084
-0.092015271
-0.092336339
-0.092600922
-0.092809703
-0.092963408
-0.093062813
-0.093108734
-0.093102025
-0.093043576
-0.092934317
-0.092775211
-0.092567257
-0.092311489
-0.092008976
-0.091660818
-0.091268148
-0.090832133
-0.090353968
-0.089834879
-0.089276122
-0.088678978
-0.088044759
-0.087374802
-0.086670471
-0.08593315
-0.085164251
-0.084365203
-0.083537456
-0.082682479
-0.081801757
-0.080896788
-0.079969082
-0.079020162
-0.078051554
-0.077064793
-0.076061414
-0.075042952
-0.07401094
-0.072966903
-0.071912359
-0.070848814
-0.069777757
-0.06870066
-0.067618974
-0.066534123
-0.065447507
-0.064360491
-0.06327441
-0.062190558
-0.061110192
-0.060034524
-0.05896472
-0.057901899
-0.056847127
-0.055801417
-0.054765726
-0.05374095
-0.052727929
-0.051727436
-0.050740184
-0.049766817
-0.048807914
-0.047863986
-0.046935474
-0.046022753
-0.045126123
-0.04424582
-0.043382007
-0.042534779
-0.041704163
-0.040890119
-0.040092541
-0.039311259
-0.038546041
-0.037796596
-0.037062575
-0.036343574
-0.035639139
-0.034948768
-0.034271914
-0.033607991
-0.032956375
-0.032316413
-0.03168742
-0.031068694
-0.03045951
-0.029859133
-0.029266818
-0.028681818
-0.028103388
-0.027530787
-0.026963288
-0.026400181
-0.025840773
-0.0252844
-0.024730425
-0.024178246
-0.023627297
-0.023077055
-0.022527037
-0.021976811
-0.02142599
-0.020874242
-0.020321286
-0.019766894
-0.019210897
-0.01865318
-0.018093684
-0.017532407
-0.016969403
-0.016404781
-0.015838704
-0.015271387
-0.014703096
-0.014134148
-0.013564904
-0.012995772
-0.012427202
-0.01185968
-0.011293733
-0.010729919
-0.010168828
-0.0096110741
-0.0090573002
-0.0085081676
-0.0079643564
-0.0074265612
-0.0068954886
-0.0063718532
-0.0058563755
-0.005349778
-0.0048527829
-0.0043661087
-0.0038904678
-0.003426563
-0.0029750858
-0.0025367126
-0.0021121033
-0.0017018974
-0.0013067132
-0.00092714337
-0.00056375498
-0.00021708463
0.00011236126
0.00042411117
0.00071772819
0.00099281482
0.0012490131
0.0014860106
0.0017035408
0.0019013854
0.0020793688
0.0022373638
0.0023752911
0.0024931241
0.0025908874
0.0026686613
0.0027265802
0.0027648367
0.002783679
0.0027834154
0.0027644109
0.0027270918
0.0026719416
0.0025995051
0.0025103847
0.0024052434
0.0022848005
0.0021498341
0.002001176
0.0018397124
0.0016663817
0.0014821759
0.001288121
0.001085431
0.00087434373
0.00066162403
0.00042035121
0.00031901521
0.087081678
0.087061348
0.087003556
0.08690839
0.086779902
0.086618417
0.086423028
0.086193406
0.085929508
0.085631184
0.085298202
0.084930314
0.084527266
0.084088777
0.083614547
0.083104256
0.082557571
0.081974143
0.081353612
0.080695605
0.079999741
0.079265629
0.078492871
0.077681066
0.076829812
0.075938702
0.075007337
0.074035321
0.073022265
0.071967791
0.070871537
0.069733156
0.068552323
0.067328735
0.066062117
0.064752226
0.063398852
0.062001825
0.060561017
0.059076344
0.057547776
0.055975334
0.054359099
0.052699212
0.050995881
0.049249384
0.047460072
0.045628371
0.043754789
0.041839918
0.039884433
0.037889099
0.035854775
0.033782409
0.031673045
0.029527824
0.027347983
0.025134855
0.022889871
0.020614558
0.018310538
0.015979527
0.013623331
0.011243847
0.0088430543
0.0064230156
0.0039858699
0.001533829
-0.00093082867
-0.0034057631
-0.0058885792
-0.0083768333
-0.01086804
-0.013359679
-0.015849204
-0.018334048
-0.020811632
-0.023279373
-0.025734693
-0.028175024
-0.030597819
-0.033000555
-0.035380746
-0.037735946
-0.040063757
-0.042361835
-0.044627898
-0.04685973
-0.049055184
-0.051212193
-0.053328768
-0.055403006
-0.05743309
-0.059417294
-0.061353987
-0.063241632
-0.065078787
-0.066864108
-0.068596351
-0.070274367
-0.071897106
-0.073463615
-0.074973037
-0.076424608
-0.07781766
-0.079151614
-0.080425981
-0.081640358
-0.082794429
-0.083887959
-0.084920793
-0.085892851
-0.086804131
-0.0876547
-0.088444694
-0.089174317
-0.089843833
-0.090453571
-0.091003915
-0.091495307
-0.091928241
-0.092303264
-0.092620972
-0.092882007
-0.093087058
-0.093236857
-0.093332184
-0.093373862
-0.093362748
-0.093299737
-0.093185758
-0.093021779
-0.0928088
-0.092547857
-0.092240017
-0.091886384
-0.091488092
-0.091046308
-0.090562228
-0.09003708
-0.08947212
-0.088868634
-0.088227935
-0.087551364
-0.086840285
-0.086096092
-0.085320198
-0.084514039
-0.083679073
-0.082816775
-0.081928639
-0.081016172
-0.080080895
-0.079124342
-0.078148051
-0.077153569
-0.076142446
-0.075116232
-0.074076474
-0.073024713
-0.071962485
-0.070891312
-0.0698127
-0.06872814
-0.067639101
-0.066547026
-0.065453332
-0.064359405
-0.063266596
-0.062176219
-0.061089547
-0.060007812
-0.058932195
-0.057863833
-0.056803806
-0.055753143
-0.054712814
-0.053683729
-0.052666738
-0.051662626
-0.050672113
-0.049695854
-0.048734432
-0.047788363
-0.046858093
-0.045943995
-0.045046373
-0.044165457
-0.043301409
-0.042454318
-0.041624204
-0.040811018
-0.040014643
-0.039234896
-0.038471533
-0.037724246
-0.036992668
-0.036276378
-0.035574902
-0.034887715
-0.034214249
-0.033553893
-0.032906
-0.032269891
-0.031644856
-0.031030166
-0.03042507
-0.029828805
-0.0292406
-0.028659682
-0.028085278
-0.027516623
-0.026952965
-0.026393567
-0.025837715
-0.025284722
-0.024733931
-0.024184718
-0.023636501
-0.023088739
-0.022540934
-0.021992641
-0.021443461
-0.020893052
-0.020341126
-0.019787448
-0.019231846
-0.0186742
-0.018114454
-0.017552605
-0.016988711
-0.016422885
-0.015855296
-0.015286169
-0.01471578
-0.014144454
-0.013572566
-0.013000538
-0.012428832
-0.011857953
-0.011288443
-0.010720878
-0.010155864
-0.0095940378
-0.0090360588
-0.0084826091
-0.0079343887
-0.007392113
-0.0068565088
-0.0063283118
-0.005808263
-0.005297106
-0.0047955834
-0.0043044343
-0.0038243911
-0.0033561769
-0.0029005024
-0.0024580637
-0.0020295387
-0.0016155859
-0.0012168405
-0.00083391295
-0.00046738588
-0.00011781237
0.00021428707
0.00052842596
0.00082415496
0.0011010633
0.0013587821
0.0015969873
0.0018154042
0.0020138069
0.0021920157
0.002349897
0.002487368
0.0026043974
0.0027010086
0.0027772798
0.0028333467
0.0028694024
0.0028856992
0.0028825486
0.002860323
0.0028194545
0.0027604371
0.002683825
0.0025902341
0.0024803404
0.0023548807
0.0022146504
0.0020605034
0.0018933484
0.0017141522
0.0015239367
0.0013237618
0.0011148961
0.00089755314
0.00067883562
0.00043067391
0.00032682502
0.087284736
0.087264455
0.087206831
0.087111959
0.086983886
0.086822932
0.086628189
0.086399328
0.086136299
0.085838948
0.085507036
0.08514031
0.084738509
0.084301344
0.083828507
0.08331967
0.082774489
0.082192608
0.081573653
0.080917243
0.080222982
0.079490467
0.078719288
0.07790903
0.077059273
0.076169598
0.075239588
0.07426883
0.073256918
0.072203457
0.071108065
0.069970376
0.068790045
0.067566749
0.066300194
0.064990115
0.063636282
0.062238504
0.060796632
0.059310564
0.057780246
0.056205682
0.054586932
0.052924121
0.051217437
0.049467144
0.047673575
0.045837145
0.043958348
0.042037765
0.040076063
0.038074002
0.036032433
0.033952303
0.031834657
0.029680638
0.027491488
0.025268548
0.02301326
0.020727164
0.0184119
0.016069201
0.013700896
0.011308905
0.0088952363
0.0064619807
0.0040113095
0.0015454681
-0.00093322885
-0.003422404
-0.0059196231
-0.0084224024
-0.010928215
-0.0134345
-0.015938666
-0.018438106
-0.020930199
-0.02341232
-0.025881849
-0.02833618
-0.030772726
-0.033188929
-0.035582266
-0.037950258
-0.040290478
-0.042600552
-0.044878172
-0.047121098
-0.049327165
-0.051494285
-0.053620455
-0.055703758
-0.057742368
-0.059734553
-0.061678675
-0.063573194
-0.065416671
-0.067207763
-0.06894523
-0.070627929
-0.072254818
-0.073824955
-0.075337491
-0.076791677
-0.078186857
-0.079522466
-0.08079803
-0.082013162
-0.083167561
-0.084261008
-0.085293365
-0.086264569
-0.087174633
-0.08802364
-0.088811741
-0.089539155
-0.090206162
-0.090813102
-0.091360375
-0.091848432
-0.092277781
-0.092648977
-0.092962627
-0.093219382
-0.093419937
-0.093565032
-0.093655454
-0.093692031
-0.093675626
-0.093607138
-0.093487499
-0.093317678
-0.093098678
-0.092831535
-0.09251732
-0.092157137
-0.09175212
-0.091303439
-0.09081229
-0.090279903
-0.089707535
-0.089096475
-0.088448039
-0.08776357
-0.087044439
-0.086292041
-0.085507798
-0.084693153
-0.083849569
-0.082978532
-0.082081545
-0.081160127
-0.08021581
-0.07925014
-0.078264672
-0.077260967
-0.076240591
-0.07520511
-0.07415609
-0.073095092
-0.07202367
-0.070943366
-0.069855709
-0.06876221
-0.067664358
-0.066563621
-0.065461437
-0.064359213
-0.063258322
-0.062160102
-0.061065845
-0.059976805
-0.058894184
-0.057819137
-0.056752764
-0.05569611
-0.054650164
-0.053615851
-0.052594034
-0.051585512
-0.050591016
-0.049611209
-0.048646684
-0.047697962
-0.046765492
-0.045849652
-0.044950743
-0.044068997
-0.043204568
-0.042357541
-0.041527928
-0.040715669
-0.039920635
-0.03914263
-0.038381391
-0.037636593
-0.03690785
-0.036194717
-0.035496697
-0.034813241
-0.034143754
-0.033487596
-0.032844093
-0.032212534
-0.03159218
-0.03098227
-0.030382021
-0.029790639
-0.029207321
-0.028631262
-0.028061658
-0.027497713
-0.026938644
-0.026383687
-0.025832099
-0.025283167
-0.024736207
-0.024190573
-0.023645661
-0.023100909
-0.022555803
-0.022009879
-0.021462727
-0.020913991
-0.020363373
-0.019810633
-0.019255591
-0.018698127
-0.018138181
-0.017575754
-0.017010906
-0.016443755
-0.015874479
-0.015303311
-0.014730537
-0.014156497
-0.013581579
-0.01300622
-0.012430901
-0.011856144
-0.011282509
-0.010710594
-0.010141026
-0.0095744624
-0.0090115866
-0.0084531033
-0.0078997359
-0.0073522237
-0.0068113175
-0.0062777773
-0.0057523685
-0.0052358586
-0.0047290145
-0.0042325993
-0.0037473692
-0.0032740705
-0.0028134371
-0.0023661875
-0.0019330219
-0.00151462
-0.0011116381
-0.00072470677
-0.00035442828
-1.3741541e-06
0.00033391696
0.000650942
0.00094923521
0.0012283712
0.0014879665
0.0017276844
0.0019472383
0.0021463938
0.0023249641
0.0024828093
0.0026198404
0.0027360217
0.0028313728
0.0029059705
0.0029599497
0.0029935051
0.0030068915
0.0030004255
0.002974485
0.0029295111
0.0028660067
0.0027845386
0.0026857357
0.0025702902
0.0024389564
0.0022925502
0.0021319477
0.0019580833
0.0017719509
0.0015746049
0.0013671347
0.0011508587
0.000925969
0.00069984514
0.00044341699
0.00033512512
0.087521213
0.087501015
0.08744361
0.087349105
0.087221536
0.087061221
0.086867252
0.086639297
0.086377299
0.086081101
0.085750455
0.085385104
0.084984776
0.084549176
0.084077987
0.083570869
0.083027469
0.082447418
0.081830331
0.081175812
0.080483452
0.079752835
0.078983532
0.078175113
0.077327141
0.076439179
0.07551079
0.074541541
0.073531007
0.072478771
0.071384429
0.070247593
0.069067894
0.067844986
0.066578551
0.065268299
0.063913978
0.06251537
0.061072303
0.05958465
0.058052334
0.056475335
0.05485369
0.053187503
0.051476942
0.049722248
0.04792374
0.046081814
0.04419695
0.042269715
0.040300768
0.038290858
0.036240832
0.034151634
0.032024308
0.029860001
0.027659959
0.025425534
0.023158181
0.020859454
0.018531013
0.016174613
0.013792109
0.01138545
0.0089566759
0.0065079121
0.0040413678
0.0015593284
-0.00093584917
-0.0034417429
-0.0059558725
-0.0084757065
-0.010998669
-0.01352215
-0.016043508
-0.018560085
-0.021069211
-0.023568212
-0.026054419
-0.028525179
-0.03097786
-0.033409859
-0.035818613
-0.038201605
-0.040556369
-0.042880499
-0.045171656
-0.047427573
-0.049646059
-0.051825007
-0.053962394
-0.05605629
-0.058104858
-0.060106355
-0.06205914
-0.06396167
-0.065812506
-0.067610308
-0.069353841
-0.071041971
-0.072673665
-0.074247991
-0.075764117
-0.077221305
-0.078618917
-0.079956403
-0.081233308
-0.082449264
-0.083603989
-0.084697282
-0.085729025
-0.086699175
-0.087607763
-0.088454892
-0.089240731
-0.089965516
-0.090629545
-0.091233174
-0.091776817
-0.092260941
-0.092686067
-0.093052764
-0.093361647
-0.093613379
-0.093808664
-0.09394825
-0.094032932
-0.094063545
-0.094040958
-0.093966072
-0.093839826
-0.09366319
-0.093437169
-0.093162801
-0.092841158
-0.092473346
-0.0920605
-0.09160379
-0.091104415
-0.090563604
-0.089982618
-0.089362748
-0.088705311
-0.088011656
-0.087283158
-0.086521218
-0.085727264
-0.084902745
-0.084049136
-0.083167931
-0.082260644
-0.081328807
-0.080373966
-0.079397682
-0.078401526
-0.077387077
-0.076355918
-0.075309637
-0.07424982
-0.07317805
-0.072095903
-0.071004945
-0.069906729
-0.068802791
-0.067694645
-0.066583784
-0.065471672
-0.064359742
-0.063249394
-0.062141988
-0.061038845
-0.059941239
-0.0588504
-0.057767503
-0.056693672
-0.055629973
-0.054577412
-0.053536935